phonopy:
  version: "2.37.1"
  frequency_unit_conversion_factor: 15.633302
  symmetry_tolerance: 1.00000e-05

space_group:
  type: "C2/m"
  number: 12
  Hall_symbol: "-C 2y"

primitive_matrix:
- [  0.000000000000000,  1.000000000000000, -0.000000000000000 ]
- [  1.000000000000000,  0.000000000000000,  0.000000000000000 ]
- [  0.000000000000000,  0.000000000000000, -1.000000000000000 ]

supercell_matrix:
- [   2,   0,   0 ]
- [   0,   2,   0 ]
- [   0,   0,   2 ]

primitive_cell:
  lattice:
  - [     4.136091772166284,     2.965606646705437,     0.000000000000000 ] # a
  - [     5.089408329096581,     0.000000000000000,     0.000000000000000 ] # b
  - [    -3.685733234486156,    -1.184806524812483,    -7.748934510310137 ] # c
  points:
  - symbol: Li # 1
    coordinates: [  0.835791384208132,  0.835791374175670,  0.917831735518016 ]
    mass: 6.940000
  - symbol: Li # 2
    coordinates: [  0.164208631348087,  0.164208618645183,  0.082168268333374 ]
    mass: 6.940000
  - symbol: Li # 3
    coordinates: [  0.835637849117718,  0.835637878750399,  0.417893939417543 ]
    mass: 6.940000
  - symbol: Li # 4
    coordinates: [  0.164362141133292,  0.164362122268896,  0.582106067894796 ]
    mass: 6.940000
  - symbol: Sn # 5
    coordinates: [  0.499871061133649,  0.499871037091689,  0.249992193333278 ]
    mass: 118.710000
  - symbol: Sn # 6
    coordinates: [  0.500128932624841,  0.500128969866268,  0.750007794932473 ]
    mass: 118.710000
  reciprocal_lattice: # without 2pi
  - [     0.000000000000000,     0.337199136342280,    -0.051557505921350 ] # a*
  - [     0.196486494173186,    -0.274037075279132,    -0.051557525275116 ] # b*
  - [     0.000000000000000,     0.000000000000000,    -0.129050000186410 ] # c*

unit_cell:
  lattice:
  - [     5.089408329096581,     0.000000000000000,     0.000000000000000 ] # a
  - [     4.136091772166284,     2.965606646705437,     0.000000000000000 ] # b
  - [     3.685733234486156,     1.184806524812483,     7.748934510310137 ] # c
  points:
  - symbol: Li # 1
    coordinates: [  0.835791374175670,  0.835791384208132,  0.082168264481984 ]
    mass: 6.940000
    reduced_to: 1
  - symbol: Li # 2
    coordinates: [  0.164208618645183,  0.164208631348087,  0.917831731666626 ]
    mass: 6.940000
    reduced_to: 2
  - symbol: Li # 3
    coordinates: [  0.835637878750399,  0.835637849117718,  0.582106060582457 ]
    mass: 6.940000
    reduced_to: 3
  - symbol: Li # 4
    coordinates: [  0.164362122268896,  0.164362141133292,  0.417893932105204 ]
    mass: 6.940000
    reduced_to: 4
  - symbol: Sn # 5
    coordinates: [  0.499871037091689,  0.499871061133649,  0.750007806666722 ]
    mass: 118.710000
    reduced_to: 5
  - symbol: Sn # 6
    coordinates: [  0.500128969866268,  0.500128932624841,  0.249992205067527 ]
    mass: 118.710000
    reduced_to: 6

supercell:
  lattice:
  - [    10.178816658193162,     0.000000000000000,     0.000000000000000 ] # a
  - [     8.272183544332568,     5.931213293410875,     0.000000000000000 ] # b
  - [     7.371466468972312,     2.369613049624967,    15.497869020620273 ] # c
  points:
  - symbol: Li # 1
    coordinates: [  0.417895687087835,  0.417895692104066,  0.041084132240992 ]
    mass: 6.940000
    reduced_to: 1
  - symbol: Li # 2
    coordinates: [  0.917895687087835,  0.417895692104066,  0.041084132240992 ]
    mass: 6.940000
    reduced_to: 1
  - symbol: Li # 3
    coordinates: [  0.417895687087835,  0.917895692104066,  0.041084132240992 ]
    mass: 6.940000
    reduced_to: 1
  - symbol: Li # 4
    coordinates: [  0.917895687087835,  0.917895692104066,  0.041084132240992 ]
    mass: 6.940000
    reduced_to: 1
  - symbol: Li # 5
    coordinates: [  0.417895687087835,  0.417895692104066,  0.541084132240992 ]
    mass: 6.940000
    reduced_to: 1
  - symbol: Li # 6
    coordinates: [  0.917895687087835,  0.417895692104066,  0.541084132240992 ]
    mass: 6.940000
    reduced_to: 1
  - symbol: Li # 7
    coordinates: [  0.417895687087835,  0.917895692104066,  0.541084132240992 ]
    mass: 6.940000
    reduced_to: 1
  - symbol: Li # 8
    coordinates: [  0.917895687087835,  0.917895692104066,  0.541084132240992 ]
    mass: 6.940000
    reduced_to: 1
  - symbol: Li # 9
    coordinates: [  0.082104309322592,  0.082104315674044,  0.458915865833313 ]
    mass: 6.940000
    reduced_to: 9
  - symbol: Li # 10
    coordinates: [  0.582104309322591,  0.082104315674044,  0.458915865833313 ]
    mass: 6.940000
    reduced_to: 9
  - symbol: Li # 11
    coordinates: [  0.082104309322592,  0.582104315674044,  0.458915865833313 ]
    mass: 6.940000
    reduced_to: 9
  - symbol: Li # 12
    coordinates: [  0.582104309322591,  0.582104315674044,  0.458915865833313 ]
    mass: 6.940000
    reduced_to: 9
  - symbol: Li # 13
    coordinates: [  0.082104309322592,  0.082104315674044,  0.958915865833313 ]
    mass: 6.940000
    reduced_to: 9
  - symbol: Li # 14
    coordinates: [  0.582104309322591,  0.082104315674044,  0.958915865833313 ]
    mass: 6.940000
    reduced_to: 9
  - symbol: Li # 15
    coordinates: [  0.082104309322592,  0.582104315674044,  0.958915865833313 ]
    mass: 6.940000
    reduced_to: 9
  - symbol: Li # 16
    coordinates: [  0.582104309322591,  0.582104315674044,  0.958915865833313 ]
    mass: 6.940000
    reduced_to: 9
  - symbol: Li # 17
    coordinates: [  0.417818939375199,  0.417818924558859,  0.291053030291228 ]
    mass: 6.940000
    reduced_to: 17
  - symbol: Li # 18
    coordinates: [  0.917818939375199,  0.417818924558859,  0.291053030291228 ]
    mass: 6.940000
    reduced_to: 17
  - symbol: Li # 19
    coordinates: [  0.417818939375199,  0.917818924558859,  0.291053030291228 ]
    mass: 6.940000
    reduced_to: 17
  - symbol: Li # 20
    coordinates: [  0.917818939375199,  0.917818924558859,  0.291053030291228 ]
    mass: 6.940000
    reduced_to: 17
  - symbol: Li # 21
    coordinates: [  0.417818939375199,  0.417818924558859,  0.791053030291228 ]
    mass: 6.940000
    reduced_to: 17
  - symbol: Li # 22
    coordinates: [  0.917818939375199,  0.417818924558859,  0.791053030291228 ]
    mass: 6.940000
    reduced_to: 17
  - symbol: Li # 23
    coordinates: [  0.417818939375199,  0.917818924558859,  0.791053030291228 ]
    mass: 6.940000
    reduced_to: 17
  - symbol: Li # 24
    coordinates: [  0.917818939375199,  0.917818924558859,  0.791053030291228 ]
    mass: 6.940000
    reduced_to: 17
  - symbol: Li # 25
    coordinates: [  0.082181061134448,  0.082181070566646,  0.208946966052602 ]
    mass: 6.940000
    reduced_to: 25
  - symbol: Li # 26
    coordinates: [  0.582181061134448,  0.082181070566646,  0.208946966052602 ]
    mass: 6.940000
    reduced_to: 25
  - symbol: Li # 27
    coordinates: [  0.082181061134448,  0.582181070566646,  0.208946966052602 ]
    mass: 6.940000
    reduced_to: 25
  - symbol: Li # 28
    coordinates: [  0.582181061134448,  0.582181070566646,  0.208946966052602 ]
    mass: 6.940000
    reduced_to: 25
  - symbol: Li # 29
    coordinates: [  0.082181061134448,  0.082181070566646,  0.708946966052602 ]
    mass: 6.940000
    reduced_to: 25
  - symbol: Li # 30
    coordinates: [  0.582181061134448,  0.082181070566646,  0.708946966052602 ]
    mass: 6.940000
    reduced_to: 25
  - symbol: Li # 31
    coordinates: [  0.082181061134448,  0.582181070566646,  0.708946966052602 ]
    mass: 6.940000
    reduced_to: 25
  - symbol: Li # 32
    coordinates: [  0.582181061134448,  0.582181070566646,  0.708946966052602 ]
    mass: 6.940000
    reduced_to: 25
  - symbol: Sn # 33
    coordinates: [  0.249935518545845,  0.249935530566825,  0.375003903333361 ]
    mass: 118.710000
    reduced_to: 33
  - symbol: Sn # 34
    coordinates: [  0.749935518545845,  0.249935530566825,  0.375003903333361 ]
    mass: 118.710000
    reduced_to: 33
  - symbol: Sn # 35
    coordinates: [  0.249935518545845,  0.749935530566824,  0.375003903333361 ]
    mass: 118.710000
    reduced_to: 33
  - symbol: Sn # 36
    coordinates: [  0.749935518545845,  0.749935530566824,  0.375003903333361 ]
    mass: 118.710000
    reduced_to: 33
  - symbol: Sn # 37
    coordinates: [  0.249935518545845,  0.249935530566825,  0.875003903333361 ]
    mass: 118.710000
    reduced_to: 33
  - symbol: Sn # 38
    coordinates: [  0.749935518545845,  0.249935530566825,  0.875003903333361 ]
    mass: 118.710000
    reduced_to: 33
  - symbol: Sn # 39
    coordinates: [  0.249935518545845,  0.749935530566824,  0.875003903333361 ]
    mass: 118.710000
    reduced_to: 33
  - symbol: Sn # 40
    coordinates: [  0.749935518545845,  0.749935530566824,  0.875003903333361 ]
    mass: 118.710000
    reduced_to: 33
  - symbol: Sn # 41
    coordinates: [  0.250064484933134,  0.250064466312420,  0.124996102533763 ]
    mass: 118.710000
    reduced_to: 41
  - symbol: Sn # 42
    coordinates: [  0.750064484933134,  0.250064466312420,  0.124996102533763 ]
    mass: 118.710000
    reduced_to: 41
  - symbol: Sn # 43
    coordinates: [  0.250064484933134,  0.750064466312420,  0.124996102533763 ]
    mass: 118.710000
    reduced_to: 41
  - symbol: Sn # 44
    coordinates: [  0.750064484933134,  0.750064466312420,  0.124996102533763 ]
    mass: 118.710000
    reduced_to: 41
  - symbol: Sn # 45
    coordinates: [  0.250064484933134,  0.250064466312420,  0.624996102533763 ]
    mass: 118.710000
    reduced_to: 41
  - symbol: Sn # 46
    coordinates: [  0.750064484933134,  0.250064466312420,  0.624996102533763 ]
    mass: 118.710000
    reduced_to: 41
  - symbol: Sn # 47
    coordinates: [  0.250064484933134,  0.750064466312420,  0.624996102533763 ]
    mass: 118.710000
    reduced_to: 41
  - symbol: Sn # 48
    coordinates: [  0.750064484933134,  0.750064466312420,  0.624996102533763 ]
    mass: 118.710000
    reduced_to: 41

displacements:
- atom:    1
  displacement:
    [   0.0100000000000000,  0.0000000000000000,  0.0000000000000000 ]
  forces:
  - [   0.0027689673006535,  0.0054302411153913, -0.0132101168856025 ]
  - [   0.0280581675469875,  0.0090136080980301, -0.0151882730424404 ]
  - [   0.0280923526734114,  0.0089662354439497, -0.0154160605743527 ]
  - [   0.0279401335865259,  0.0068239467218518, -0.0153782889246941 ]
  - [   0.0282161366194487,  0.0090680560097098, -0.0152672920376062 ]
  - [   0.0282125938683748,  0.0090662259608507, -0.0152806257829070 ]
  - [   0.0282088425010443,  0.0090713743120432, -0.0152624435722828 ]
  - [   0.0282083451747894,  0.0090699791908264, -0.0152807282283902 ]
  - [  -0.0282160751521587, -0.0090662073343992,  0.0152938235551119 ]
  - [  -0.0281951595097780, -0.0090767834335566,  0.0152896940708160 ]
  - [  -0.0282122455537319, -0.0090559832751751,  0.0152805037796497 ]
  - [  -0.0282201766967773, -0.0090759675949812,  0.0153247471898794 ]
  - [  -0.0283023677766323, -0.0090574864298105,  0.0149890203028917 ]
  - [  -0.0269495211541653, -0.0074042631313205,  0.0163139104843140 ]
  - [  -0.0252197906374931, -0.0098405610769987,  0.0167388599365950 ]
  - [  -0.0236267354339361, -0.0074506010860205,  0.0129660107195377 ]
  - [   0.0304295271635056,  0.0098089314997196, -0.0155144315212965 ]
  - [   0.0304243434220552,  0.0100208465009928, -0.0148591343313456 ]
  - [   0.0305877849459648,  0.0095576103776693, -0.0147762335836887 ]
  - [   0.0308104101568460,  0.0099109504371881, -0.0157726835459471 ]
  - [   0.0304312296211720,  0.0098100248724222, -0.0153575353324413 ]
  - [   0.0304244179278612,  0.0097913704812527, -0.0152926072478294 ]
  - [   0.0305874645709991,  0.0097859650850296, -0.0152608919888735 ]
  - [   0.0308119617402554,  0.0099121835082769, -0.0149829667061567 ]
  - [  -0.0324727594852448, -0.0101370448246598,  0.0148078929632902 ]
  - [  -0.0307023376226425, -0.0097620971500874,  0.0151669904589653 ]
  - [  -0.0302926786243916, -0.0103290025144815,  0.0141601348295808 ]
  - [  -0.0306327305734158, -0.0100098820403218,  0.0149375442415476 ]
  - [  -0.0305625349283218, -0.0095423832535744,  0.0152783999219537 ]
  - [  -0.0303534958511591, -0.0097618140280247,  0.0152035709470510 ]
  - [  -0.0303579922765493, -0.0097541771829128,  0.0152189321815968 ]
  - [  -0.0303955040872097, -0.0099265966564417,  0.0152442557737231 ]
  - [   0.0013384766643867,  0.0003874646499753, -0.0005807386478409 ]
  - [   0.0013975587207824,  0.0004798420704901, -0.0003981274785474 ]
  - [   0.0013958439230919,  0.0004194756038487, -0.0004498921334743 ]
  - [   0.0012812875211239,  0.0004923068918288, -0.0003654537722468 ]
  - [   0.0013662138953805,  0.0003895385889336, -0.0004266733303666 ]
  - [   0.0017432793974876,  0.0001309318467975, -0.0022234786301851 ]
  - [   0.0017350791022182, -0.0000366038875654, -0.0003872024826705 ]
  - [   0.0006587558891624,  0.0003102307673544, -0.0007020824123174 ]
  - [   0.0077716736122966,  0.0023139733821154, -0.0039705699309707 ]
  - [   0.0048042982816696, -0.0003158263862133,  0.0038805638905615 ]
  - [   0.0025414298288524,  0.0016216874355450,  0.0027955886907876 ]
  - [  -0.0020144397858530, -0.0002741232747212,  0.0007134255720302 ]
  - [  -0.0013674343936145, -0.0004427714738995,  0.0004969257861376 ]
  - [  -0.0014060816029087, -0.0004236367531121,  0.0004726081388071 ]
  - [  -0.0013670511543751, -0.0004685525782406,  0.0005224786000326 ]
  - [  -0.0013794880360365, -0.0004406315274537,  0.0005086450837553 ]
- atom:    1
  displacement:
    [  -0.0100000000000000,  0.0000000000000000,  0.0000000000000000 ]
  forces:
  - [   0.0536754876375198,  0.0128021780401468, -0.0176665522158146 ]
  - [   0.0283654090017080,  0.0091268010437489, -0.0153869166970253 ]
  - [   0.0283343382179737,  0.0091700349003077, -0.0151589335873723 ]
  - [   0.0284886769950390,  0.0113157043233514, -0.0152008989825845 ]
  - [   0.0282085556536913,  0.0090695293620229, -0.0153030194342136 ]
  - [   0.0282088983803988,  0.0090709198266268, -0.0152877643704414 ]
  - [   0.0282121375203133,  0.0090665407478809, -0.0153070716187358 ]
  - [   0.0282147899270058,  0.0090680746361613, -0.0152849862352014 ]
  - [  -0.0282086282968521, -0.0090721193701029,  0.0152684971690178 ]
  - [  -0.0282254181802273, -0.0090601090341806,  0.0152799617499113 ]
  - [  -0.0282115582376719, -0.0090823099017143,  0.0152918342500925 ]
  - [  -0.0282054282724857, -0.0090629737824202,  0.0152469165623188 ]
  - [  -0.0281253941357136, -0.0090774372220039,  0.0155881829559803 ]
  - [  -0.0294662341475487, -0.0107574705034494,  0.0142484810203314 ]
  - [  -0.0312659181654453, -0.0082718152552843,  0.0137994177639484 ]
  - [  -0.0327213406562805, -0.0106495507061481,  0.0175489392131567 ]
  - [   0.0303227528929710,  0.0097172055393457, -0.0149014312773943 ]
  - [   0.0303308814764023,  0.0095054842531681, -0.0155553463846445 ]
  - [   0.0301584154367447,  0.0099749229848385, -0.0156374312937260 ]
  - [   0.0299326293170452,  0.0096174944192171, -0.0146466214209795 ]
  - [   0.0303220711648464,  0.0097181703895330, -0.0150445215404034 ]
  - [   0.0303298458456993,  0.0097391381859779, -0.0151097178459167 ]
  - [   0.0301575083285570,  0.0097398217767477, -0.0151398219168186 ]
  - [   0.0299366023391485,  0.0096182189881802, -0.0154159925878048 ]
  - [  -0.0282789077609777, -0.0093945972621441,  0.0156163275241852 ]
  - [  -0.0300448015332222, -0.0097621753811836,  0.0152283608913422 ]
  - [  -0.0304498728364706, -0.0091960802674294,  0.0162447541952133 ]
  - [  -0.0301207453012466, -0.0095232995226979,  0.0154674584046006 ]
  - [  -0.0301855299621820, -0.0099872117862105,  0.0151205947622657 ]
  - [  -0.0303946081548929, -0.0097671970725060,  0.0152000673115253 ]
  - [  -0.0303901359438896, -0.0097723472863436,  0.0151848634704947 ]
  - [  -0.0303564779460430, -0.0096010770648718,  0.0151583468541503 ]
  - [   0.0014152814401314,  0.0004987868014723, -0.0004325271584094 ]
  - [   0.0013532013399526,  0.0004046217072755, -0.0006169193075038 ]
  - [   0.0013576615601778,  0.0004682238213718, -0.0005679624155164 ]
  - [   0.0014752019196749,  0.0003921361640096, -0.0006470978260040 ]
  - [   0.0013831404503435,  0.0004985013511032, -0.0005801488878205 ]
  - [   0.0009846054017544,  0.0007594381459057,  0.0012389943003654 ]
  - [   0.0010230762418360,  0.0009007707703859, -0.0005682507180609 ]
  - [   0.0020981901325285,  0.0005745603702962, -0.0003097804728895 ]
  - [  -0.0108215585350990, -0.0033178720623255,  0.0051740435883403 ]
  - [  -0.0073480699211359, -0.0006263535469770, -0.0027290703728795 ]
  - [  -0.0052636829204857, -0.0024463222362101, -0.0017374942544848 ]
  - [  -0.0007193025667220, -0.0006246442208067,  0.0002866887953132 ]
  - [  -0.0013869686517864, -0.0004411300178617,  0.0005137136904523 ]
  - [  -0.0013455026783049, -0.0004613101482391,  0.0005380540387705 ]
  - [  -0.0013838764280081, -0.0004166183061898,  0.0004879875341430 ]
  - [  -0.0013693682849407, -0.0004452499561012,  0.0005038133822381 ]
- atom:    1
  displacement:
    [   0.0042549429716439,  0.0013677832536384,  0.0089456486226056 ]
  forces:
  - [   0.0187280792742968,  0.0060196630656719, -0.0348840840160847 ]
  - [   0.0282237064093351,  0.0087364166975021, -0.0147697450593114 ]
  - [   0.0280272755771875,  0.0093454048037529, -0.0147693399339914 ]
  - [   0.0277075488120317,  0.0089063756167889, -0.0163465030491352 ]
  - [   0.0282298009842634,  0.0090744253247976, -0.0152448117733002 ]
  - [   0.0282143503427505,  0.0090969875454903, -0.0153345922008157 ]
  - [   0.0282301139086485,  0.0090479291975498, -0.0153354182839394 ]
  - [   0.0282124467194080,  0.0090692350640893, -0.0152788562700152 ]
  - [  -0.0282023586332798, -0.0090659279376268,  0.0152838975191116 ]
  - [  -0.0282006748020649, -0.0090875923633575,  0.0153104849159718 ]
  - [  -0.0282152052968740, -0.0090478044003248,  0.0153117291629314 ]
  - [  -0.0281818713992834, -0.0090594980865717,  0.0152976959943771 ]
  - [  -0.0285154022276402, -0.0091670695692301,  0.0146672800183296 ]
  - [  -0.0265299975872040, -0.0071615949273109,  0.0161856021732092 ]
  - [  -0.0257370918989182, -0.0096407402306795,  0.0161865577101707 ]
  - [  -0.0281172767281532, -0.0090385787189007,  0.0155697986483574 ]
  - [   0.0302590150386095,  0.0097264368087053, -0.0156233459711075 ]
  - [   0.0303180627524853,  0.0099152196198702, -0.0149835385382175 ]
  - [   0.0304134432226419,  0.0096076205372810, -0.0149818900972605 ]
  - [   0.0307705383747816,  0.0098914261907339, -0.0152764227241278 ]
  - [   0.0301365666091442,  0.0096873193979263, -0.0155336428433657 ]
  - [   0.0307366773486137,  0.0100198648869991, -0.0151978228241205 ]
  - [   0.0308145619928837,  0.0097659807652235, -0.0151979457587004 ]
  - [   0.0300743151456118,  0.0096678119152784, -0.0149152092635632 ]
  - [  -0.0316703580319881, -0.0101807210594416,  0.0141551336273551 ]
  - [  -0.0305475182831287, -0.0112218111753464,  0.0175290964543819 ]
  - [  -0.0313655696809292, -0.0086801312863827,  0.0175294056534767 ]
  - [  -0.0307553838938475, -0.0098866764456034,  0.0149031504988670 ]
  - [  -0.0303477607667446, -0.0097559187561274,  0.0135529302060604 ]
  - [  -0.0303635168820620, -0.0097392052412033,  0.0152104794979095 ]
  - [  -0.0303507521748543, -0.0097776670008898,  0.0152104264125228 ]
  - [  -0.0303670093417168, -0.0097609665244818,  0.0147254075855017 ]
  - [   0.0013421931071207,  0.0004319418221712, -0.0005285581573844 ]
  - [   0.0013867684174329,  0.0004945166874677, -0.0003923308104277 ]
  - [   0.0014164354652166,  0.0004080040380359, -0.0003938768059015 ]
  - [   0.0013372227549553,  0.0004289508797228, -0.0009945956990123 ]
  - [   0.0013776693958789,  0.0004444537917152, -0.0005478081875481 ]
  - [   0.0002955887466669,  0.0016049509868026,  0.0051720310002565 ]
  - [   0.0011793472804129, -0.0011300797341391,  0.0051723686046898 ]
  - [   0.0010101678781211,  0.0003244513645768, -0.0008726334781386 ]
  - [  -0.0009865388274193, -0.0003171954303980,  0.0009654026944190 ]
  - [   0.0039159655570984, -0.0003398042172194,  0.0034248838201165 ]
  - [   0.0029844085220248,  0.0025586690753698,  0.0034228619188070 ]
  - [  -0.0014593624509871, -0.0004689081106335,  0.0003688085125759 ]
  - [  -0.0014847328420728, -0.0004765356425196,  0.0005500792758539 ]
  - [  -0.0012799019459635, -0.0004609259776771,  0.0005909159081057 ]
  - [  -0.0013082139194012, -0.0003716964274645,  0.0005912450142205 ]
  - [  -0.0013557951897383, -0.0004370100796223,  0.0005152773810551 ]
- atom:    1
  displacement:
    [  -0.0042549429716439, -0.0013677832536384, -0.0089456486226056 ]
  forces:
  - [   0.0374079495668411,  0.0120246699079871,  0.0044619925320148 ]
  - [   0.0281924046576023,  0.0093999467790127, -0.0158040504902601 ]
  - [   0.0283883959054947,  0.0087880138307810, -0.0158037468791008 ]
  - [   0.0287139341235161,  0.0092298053205013, -0.0142231276258826 ]
  - [   0.0281948577612638,  0.0090631730854511, -0.0153255909681320 ]
  - [   0.0282071325927973,  0.0090401079505682, -0.0152333108708262 ]
  - [   0.0281909760087729,  0.0090899989008904, -0.0152339069172740 ]
  - [   0.0282109230756760,  0.0090687116608024, -0.0152870044112206 ]
  - [  -0.0282227825373411, -0.0090724918991327,  0.0152794346213341 ]
  - [  -0.0282198525965214, -0.0090490765869617,  0.0152592640370131 ]
  - [  -0.0282083544880152, -0.0090903900563717,  0.0152605231851339 ]
  - [  -0.0282434504479170, -0.0090793650597334,  0.0152745228260756 ]
  - [  -0.0279069021344185, -0.0089713782072067,  0.0159056540578604 ]
  - [  -0.0299070179462433, -0.0110102817416191,  0.0143869295716286 ]
  - [  -0.0307243168354034, -0.0084808059036732,  0.0143876187503338 ]
  - [  -0.0283253509551287, -0.0091055314987898,  0.0150144547224045 ]
  - [   0.0304854270070791,  0.0097991731017828, -0.0148009266704321 ]
  - [   0.0304360631853342,  0.0096149928867817, -0.0154222678393126 ]
  - [   0.0303345303982496,  0.0099203065037727, -0.0154206790030003 ]
  - [   0.0299737844616175,  0.0096354316920042, -0.0151259750127792 ]
  - [   0.0306265763938427,  0.0098448619246483, -0.0148564353585243 ]
  - [   0.0300064943730831,  0.0095049887895584, -0.0152007229626179 ]
  - [   0.0299210399389267,  0.0097589027136564, -0.0152007807046175 ]
  - [   0.0306750107556581,  0.0098608843982220, -0.0154910720884800 ]
  - [  -0.0290662609040737, -0.0093437386676669,  0.0162568204104900 ]
  - [  -0.0302082747220993, -0.0083373915404081,  0.0128998812288046 ]
  - [  -0.0294093079864979, -0.0108267944306135,  0.0129000181332231 ]
  - [  -0.0299977771937847, -0.0096431151032448,  0.0155001161620021 ]
  - [  -0.0303969345986843, -0.0097717428579926,  0.0168383494019508 ]
  - [  -0.0303844492882490, -0.0097896475344896,  0.0151930619031191 ]
  - [  -0.0303969345986843, -0.0097488388419151,  0.0151930646970868 ]
  - [  -0.0303857177495956, -0.0097670145332813,  0.0156871918588877 ]
  - [   0.0014104084111750,  0.0004536674823612, -0.0004847858217545 ]
  - [   0.0013635813957080,  0.0003897203132510, -0.0006207054248080 ]
  - [   0.0013365875929594,  0.0004797358997166, -0.0006221681833267 ]
  - [   0.0014181006699800,  0.0004553827457130, -0.0000199293717742 ]
  - [   0.0013723676092923,  0.0004428224638104, -0.0004591852775775 ]
  - [   0.0025228485465050, -0.0007915943861008, -0.0063295131549239 ]
  - [   0.0015929352957755,  0.0021155532449484, -0.0063290055841208 ]
  - [   0.0017405180260539,  0.0005589831853285, -0.0001352304825559 ]
  - [  -0.0017022062093019, -0.0005472600460052,  0.0000118594616652 ]
  - [  -0.0065088123083115, -0.0005876328796148, -0.0023622079752386 ]
  - [  -0.0056315818801522, -0.0033144676126540, -0.0023639132268727 ]
  - [  -0.0012998899910599, -0.0004173844354227,  0.0006419642595574 ]
  - [  -0.0012703472748399, -0.0004077353514731,  0.0004614497884177 ]
  - [  -0.0014707591617480, -0.0004241410642862,  0.0004214143264107 ]
  - [  -0.0014419406652451, -0.0005128188058734,  0.0004215214867145 ]
  - [  -0.0013936329632998, -0.0004491466097534,  0.0004990652669221 ]
- atom:   17
  displacement:
    [   0.0100000000000000,  0.0000000000000000,  0.0000000000000000 ]
  forces:
  - [   0.0282652154564857,  0.0091139590367675, -0.0154436668381095 ]
  - [   0.0282608121633530,  0.0090960841625929, -0.0153784416615963 ]
  - [   0.0284273941069841,  0.0090912561863661, -0.0153464777395129 ]
  - [   0.0286513939499855,  0.0092164147645235, -0.0150697175413370 ]
  - [   0.0282680802047253,  0.0091141210868955, -0.0155973155051470 ]
  - [   0.0282593648880720,  0.0093243736773729, -0.0149416513741016 ]
  - [   0.0284256655722857,  0.0088633317500353, -0.0148610370233655 ]
  - [   0.0286484062671661,  0.0092166010290384, -0.0158564969897270 ]
  - [  -0.0303121730685234, -0.0094423517584801,  0.0148916076868773 ]
  - [  -0.0285386294126511, -0.0090649314224720,  0.0152460485696793 ]
  - [  -0.0281291119754314, -0.0096358638256788,  0.0142415426671505 ]
  - [  -0.0284716356545687, -0.0093153752386570,  0.0150207690894604 ]
  - [  -0.0283996295183897, -0.0088471453636885,  0.0153663288801908 ]
  - [  -0.0281884521245956, -0.0090658217668533,  0.0152878165245056 ]
  - [  -0.0281967744231224, -0.0090604983270168,  0.0153040084987879 ]
  - [  -0.0282300692051649, -0.0092313662171364,  0.0153298005461693 ]
  - [   0.0049532838165760,  0.0061412062495947, -0.0131733063608408 ]
  - [   0.0302233770489693,  0.0097091868519783, -0.0151054095476866 ]
  - [   0.0302546676248312,  0.0096623841673136, -0.0153314638882875 ]
  - [   0.0300948359072208,  0.0075179254636168, -0.0152920726686716 ]
  - [   0.0303800702095032,  0.0097636841237545, -0.0151851382106543 ]
  - [   0.0303775072097778,  0.0097613632678986, -0.0151986368000507 ]
  - [   0.0303702615201473,  0.0097661502659321, -0.0151801500469446 ]
  - [   0.0303721651434898,  0.0097654070705175, -0.0152002554386854 ]
  - [  -0.0304595157504082, -0.0097514037042856,  0.0149052459746599 ]
  - [  -0.0291078742593527, -0.0080829821527004,  0.0162400640547276 ]
  - [  -0.0273560136556625, -0.0105457138270140,  0.0166695881634951 ]
  - [  -0.0258189123123884, -0.0081568276509643,  0.0129061620682478 ]
  - [  -0.0303777251392603, -0.0097615169361234,  0.0152145866304636 ]
  - [  -0.0303592253476381, -0.0097729638218880,  0.0152057679370046 ]
  - [  -0.0303746238350868, -0.0097502209246159,  0.0151951322332025 ]
  - [  -0.0303838811814785, -0.0097705088555813,  0.0152414441108704 ]
  - [   0.0104881208389997,  0.0031863290350884, -0.0049592740833759 ]
  - [   0.0075611714273691,  0.0005674837157130,  0.0028776121325791 ]
  - [   0.0052980873733759,  0.0025100354105234,  0.0017895353958011 ]
  - [   0.0007420703768730,  0.0006098905578256, -0.0003004632890224 ]
  - [   0.0013840598985553,  0.0004426005762070, -0.0005127365002409 ]
  - [   0.0013437159359455,  0.0004606703296304, -0.0005371980369091 ]
  - [   0.0013861528132111,  0.0004176951479167, -0.0004871778073721 ]
  - [   0.0013703417498618,  0.0004440721822903, -0.0005016534705646 ]
  - [  -0.0013836706057191, -0.0004964284598827,  0.0005844990955666 ]
  - [  -0.0010037459433079, -0.0007570870220661, -0.0012272520689294 ]
  - [  -0.0010211470071226, -0.0009169578552246,  0.0006055659032427 ]
  - [  -0.0020967079326510, -0.0005743411602452,  0.0003088923986070 ]
  - [  -0.0014146860921755, -0.0004972866736352,  0.0004308361676522 ]
  - [  -0.0013541163643822, -0.0004050347488374,  0.0006120719481260 ]
  - [  -0.0013569202274084, -0.0004669544287026,  0.0005623102188110 ]
  - [  -0.0014709569513798, -0.0003926558420062,  0.0006497865542769 ]
- atom:   17
  displacement:
    [  -0.0100000000000000,  0.0000000000000000,  0.0000000000000000 ]
  forces:
  - [   0.0281584858894348,  0.0090222861617804, -0.0151257421821356 ]
  - [   0.0281674023717642,  0.0090449694544077, -0.0151941236108541 ]
  - [   0.0279981922358274,  0.0090446155518293, -0.0152234854176641 ]
  - [   0.0277735330164433,  0.0089228851720691, -0.0154979461804032 ]
  - [   0.0281588658690453,  0.0090222135186195, -0.0149834956973791 ]
  - [   0.0281647946685553,  0.0088106431066990, -0.0156343821436167 ]
  - [   0.0279957447201014,  0.0092785712331533, -0.0157187804579735 ]
  - [   0.0277732945978642,  0.0089226737618446, -0.0147236082702875 ]
  - [  -0.0261185113340616, -0.0087001081556082,  0.0156941246241331 ]
  - [  -0.0278813019394875, -0.0090680792927742,  0.0153125338256359 ]
  - [  -0.0282864011824131, -0.0084997173398733,  0.0163292642682791 ]
  - [  -0.0279597155749798, -0.0088287778198719,  0.0155496746301651 ]
  - [  -0.0280228443443775, -0.0092920660972595,  0.0152001064270735 ]
  - [  -0.0282296091318130, -0.0090715084224939,  0.0152849983423948 ]
  - [  -0.0282289516180754, -0.0090783592313528,  0.0152704361826181 ]
  - [  -0.0281909350305796, -0.0089057236909866,  0.0152403023093939 ]
  - [   0.0558165311813354,  0.0134815815836191, -0.0175303500145674 ]
  - [   0.0305273085832596,  0.0098213069140911, -0.0153014808893204 ]
  - [   0.0304934270679951,  0.0098650082945824, -0.0150729026645422 ]
  - [   0.0306516401469707,  0.0120111629366875, -0.0151187609881163 ]
  - [   0.0303725190460682,  0.0097651798278093, -0.0152208842337132 ]
  - [   0.0303739923983812,  0.0097662918269634, -0.0152060370892286 ]
  - [   0.0303737632930279,  0.0097612068057060, -0.0152249187231064 ]
  - [   0.0303786080330610,  0.0097636431455612, -0.0152046084403992 ]
  - [  -0.0302931535989046, -0.0097732134163380,  0.0155060980468988 ]
  - [  -0.0316364467144012, -0.0114693026989698,  0.0141573539003730 ]
  - [  -0.0334536135196686, -0.0089551229029894,  0.0137024456635118 ]
  - [  -0.0348543524742126, -0.0113338101655245,  0.0174421370029449 ]
  - [  -0.0303706545382738, -0.0097674075514078,  0.0151896588504314 ]
  - [  -0.0303895920515060, -0.0097561627626419,  0.0151959713548422 ]
  - [  -0.0303740371018648, -0.0097764823585749,  0.0152066797018051 ]
  - [  -0.0303691476583481, -0.0097575914114714,  0.0151635715737939 ]
  - [  -0.0080325827002525, -0.0024196857120842,  0.0041387053206563 ]
  - [  -0.0045956657268107,  0.0002629230730236, -0.0037503628991544 ]
  - [  -0.0025083553045988, -0.0015632007271051, -0.0027552917599678 ]