# Thermal properties / unit cell (natom)

unit:
  temperature:   K
  free_energy:   kJ/mol
  entropy:       J/K/mol
  heat_capacity: J/K/mol

natom: 6    
cutoff_frequency: 0.00000
num_modes: 270504
num_integrated_modes: 270133

zero_point_energy:      23.1167498

thermal_properties:
- temperature:         0.0000000
  free_energy:        23.1167498
  entropy:             0.0000000
  heat_capacity:       0.0000000
  energy:             23.1167498

- temperature:        10.0000000
  free_energy:        23.1149520
  entropy:             0.5952296
  heat_capacity:       1.5079769
  energy:             23.1209043

- temperature:        20.0000000
  free_energy:        23.0962954
  entropy:             3.6790781
  heat_capacity:       9.3662434
  energy:             23.1698770

- temperature:        30.0000000
  free_energy:        23.0320464
  entropy:             9.4999312
  heat_capacity:      20.0024455
  energy:             23.3170443

- temperature:        40.0000000
  free_energy:        22.9022190
  entropy:            16.5764281
  heat_capacity:      29.3897848
  energy:             23.5652761

- temperature:        50.0000000
  free_energy:        22.6993064
  entropy:            24.0360841
  heat_capacity:      37.6650673
  energy:             23.9011106

- temperature:        60.0000000
  free_energy:        22.4211540
  entropy:            31.6048530
  heat_capacity:      45.5821580
  energy:             24.3174451

- temperature:        70.0000000
  free_energy:        22.0670495
  entropy:            39.2224153
  heat_capacity:      53.4471127
  energy:             24.8126186

- temperature:        80.0000000
  free_energy:        21.6366094
  entropy:            46.8685063
  heat_capacity:      61.2192730
  energy:             25.3860899

- temperature:        90.0000000
  free_energy:        21.1296721
  entropy:            54.5164713
  heat_capacity:      68.7371473
  energy:             26.0361545

- temperature:       100.0000000
  free_energy:        20.5463921
  entropy:            62.1307310
  heat_capacity:      75.8466012
  energy:             26.7594652

- temperature:       110.0000000
  free_energy:        19.8872963
  entropy:            69.6734619
  heat_capacity:      82.4450781
  energy:             27.5513771

- temperature:       120.0000000
  free_energy:        19.1532770
  entropy:            77.1101653
  heat_capacity:      88.4839681
  energy:             28.4064968

- temperature:       130.0000000
  free_energy:        18.3455417
  entropy:            84.4124879
  heat_capacity:      93.9563618
  energy:             29.3191652

- temperature:       140.0000000
  free_energy:        17.4655474
  entropy:            91.5589658
  heat_capacity:      98.8828482
  energy:             30.2838026

- temperature:       150.0000000
  free_energy:        16.5149325
  entropy:            98.5346034
  heat_capacity:     103.2998439
  energy:             31.2951230

- temperature:       160.0000000
  free_energy:        15.4954568
  entropy:           105.3299416
  heat_capacity:     107.2512976
  energy:             32.3482475

- temperature:       170.0000000
  free_energy:        14.4089517
  entropy:           111.9399958
  heat_capacity:     110.7833037
  energy:             33.4387509

- temperature:       180.0000000
  free_energy:        13.2572799
  entropy:           118.3632550
  heat_capacity:     113.9408680
  energy:             34.5626658

- temperature:       190.0000000
  free_energy:        12.0423058
  entropy:           124.6008174
  heat_capacity:     116.7661327
  energy:             35.7164611

- temperature:       200.0000000
  free_energy:        10.7658727
  entropy:           130.6556834
  heat_capacity:     119.2975400
  energy:             36.8970093

- temperature:       210.0000000
  free_energy:         9.4297867
  entropy:           136.5321952
  heat_capacity:     121.5695684
  energy:             38.1015477

- temperature:       220.0000000
  free_energy:         8.0358058
  entropy:           142.2356029
  heat_capacity:     123.6128012
  energy:             39.3276385

- temperature:       230.0000000
  free_energy:         6.5856323
  entropy:           147.7717345
  heat_capacity:     125.4541714
  energy:             40.5731312

- temperature:       240.0000000
  free_energy:         5.0809082
  entropy:           153.1467493
  heat_capacity:     127.1172908
  energy:             41.8361280

- temperature:       250.0000000
  free_energy:         3.5232133
  entropy:           158.3669546
  heat_capacity:     128.6228045
  energy:             43.1149520

- temperature:       260.0000000
  free_energy:         1.9140641
  entropy:           163.4386733
  heat_capacity:     129.9887404
  energy:             44.4081191

- temperature:       270.0000000
  free_energy:         0.2549140
  entropy:           168.3681490
  heat_capacity:     131.2308356
  energy:             45.7143142

- temperature:       280.0000000
  free_energy:        -1.4528451
  entropy:           173.1614791
  heat_capacity:     132.3628329
  energy:             47.0323690

- temperature:       290.0000000
  free_energy:        -3.2078815
  entropy:           177.8245709
  heat_capacity:     133.3967446
  energy:             48.3612441

- temperature:       300.0000000
  free_energy:        -5.0089214
  entropy:           182.3631119
  heat_capacity:     134.3430835
  energy:             49.7000122

- temperature:       310.0000000
  free_energy:        -6.8547468
  entropy:           186.7825530
  heat_capacity:     135.2110651
  energy:             51.0478447

- temperature:       320.0000000
  free_energy:        -8.7441928
  entropy:           191.0881006
  heat_capacity:     136.0087813
  energy:             52.4039994

- temperature:       330.0000000
  free_energy:       -10.6761457
  entropy:           195.2847139
  heat_capacity:     136.7433514
  energy:             53.7678099

- temperature:       340.0000000
  free_energy:       -12.6495397
  entropy:           199.3771078
  heat_capacity:     137.4210514
  energy:             55.1386769

- temperature:       350.0000000
  free_energy:       -14.6633554
  entropy:           203.3697580
  heat_capacity:     138.0474250
  energy:             56.5160599

- temperature:       360.0000000
  free_energy:       -16.7166166
  entropy:           207.2669093
  heat_capacity:     138.6273797
  energy:             57.8994707

- temperature:       370.0000000
  free_energy:       -18.8083887
  entropy:           211.0725838
  heat_capacity:     139.1652685
  energy:             59.2884673

- temperature:       380.0000000
  free_energy:       -20.9377761
  entropy:           214.7905919
  heat_capacity:     139.6649609
  energy:             60.6826488

- temperature:       390.0000000
  free_energy:       -23.1039203
  entropy:           218.4245413
  heat_capacity:     140.1299039
  energy:             62.0816508

- temperature:       400.0000000
  free_energy:       -25.3059981
  entropy:           221.9778487
  heat_capacity:     140.5631740
  energy:             63.4851414

- temperature:       410.0000000
  free_energy:       -27.5432193
  entropy:           225.4537492
  heat_capacity:     140.9675230
  energy:             64.8928179

- temperature:       420.0000000
  free_energy:       -29.8148253
  entropy:           228.8553071
  heat_capacity:     141.3454169
  energy:             66.3044037

- temperature:       430.0000000
  free_energy:       -32.1200873
  entropy:           232.1854251
  heat_capacity:     141.6990702
  energy:             67.7196454

- temperature:       440.0000000
  free_energy:       -34.4583049
  entropy:           235.4468541
  heat_capacity:     142.0304750
  energy:             69.1383109

- temperature:       450.0000000
  free_energy:       -36.8288042
  entropy:           238.6422021
  heat_capacity:     142.3414267
  energy:             70.5601868

- temperature:       460.0000000
  free_energy:       -39.2309369
  entropy:           241.7739426
  heat_capacity:     142.6335467
  energy:             71.9850767

- temperature:       470.0000000
  free_energy:       -41.6640788
  entropy:           244.8444227
  heat_capacity:     142.9083016
  energy:             73.4127999

- temperature:       480.0000000
  free_energy:       -44.1276286
  entropy:           247.8558706
  heat_capacity:     143.1670202
  energy:             74.8431893

- temperature:       490.0000000
  free_energy:       -46.6210065
  entropy:           250.8104028
  heat_capacity:     143.4109087
  energy:             76.2760908

- temperature:       500.0000000
  free_energy:       -49.1436536
  entropy:           253.7100307
  heat_capacity:     143.6410636
  energy:             77.7113617

- temperature:       510.0000000
  free_energy:       -51.6950305
  entropy:           256.5566670
  heat_capacity:     143.8584833
  energy:             79.1488697

- temperature:       520.0000000
  free_energy:       -54.2746164
  entropy:           259.3521315
  heat_capacity:     144.0640786
  energy:             80.5884920

- temperature:       530.0000000
  free_energy:       -56.8819084
  entropy:           262.0981565
  heat_capacity:     144.2586810
  energy:             82.0301146

- temperature:       540.0000000
  free_energy:       -59.5164203
  entropy:           264.7963921
  heat_capacity:     144.4430513
  energy:             83.4736315

- temperature:       550.0000000
  free_energy:       -62.1776822
  entropy:           267.4484109
  heat_capacity:     144.6178866
  energy:             84.9189439

- temperature:       560.0000000
  free_energy:       -64.8652394
  entropy:           270.0557125
  heat_capacity:     144.7838258
  energy:             86.3659596

- temperature:       570.0000000
  free_energy:       -67.5786521
  entropy:           272.6197277
  heat_capacity:     144.9414563
  energy:             87.8145927

- temperature:       580.0000000
  free_energy:       -70.3174943
  entropy:           275.1418225
  heat_capacity:     145.0913179
  energy:             89.2647628

- temperature:       590.0000000
  free_energy:       -73.0813532
  entropy:           277.6233017
  heat_capacity:     145.2339080
  energy:             90.7163948

- temperature:       600.0000000
  free_energy:       -75.8698291
  entropy:           280.0654122
  heat_capacity:     145.3696851
  energy:             92.1694183

- temperature:       610.0000000
  free_energy:       -78.6825342
  entropy:           282.4693465
  heat_capacity:     145.4990725
  energy:             93.6237672

- temperature:       620.0000000
  free_energy:       -81.5190925
  entropy:           284.8362456
  heat_capacity:     145.6224614
  energy:             95.0793797

- temperature:       630.0000000
  free_energy:       -84.3791393
  entropy:           287.1672015
  heat_capacity:     145.7402138
  energy:             96.5361976

- temperature:       640.0000000
  free_energy:       -87.2623203
  entropy:           289.4632603
  heat_capacity:     145.8526650
  energy:             97.9941663

- temperature:       650.0000000
  free_energy:       -90.1682915
  entropy:           291.7254244
  heat_capacity:     145.9601261
  energy:             99.4532343

- temperature:       660.0000000
  free_energy:       -93.0967190
  entropy:           293.9546548
  heat_capacity:     146.0628856
  energy:            100.9133532

- temperature:       670.0000000
  free_energy:       -96.0472779
  entropy:           296.1518734
  heat_capacity:     146.1612118
  energy:            102.3744773

- temperature:       680.0000000
  free_energy:       -99.0196527
  entropy:           298.3179649
  heat_capacity:     146.2553544
  energy:            103.8365635

- temperature:       690.0000000
  free_energy:      -102.0135363
  entropy:           300.4537789
  heat_capacity:     146.3455456
  energy:            105.2995712

- temperature:       700.0000000
  free_energy:      -105.0286301
  entropy:           302.5601314
  heat_capacity:     146.4320020
  energy:            106.7634619

- temperature:       710.0000000
  free_energy:      -108.0646433
  entropy:           304.6378067
  heat_capacity:     146.5149256
  energy:            108.2281994

- temperature:       720.0000000
  free_energy:      -111.1212931
  entropy:           306.6875589
  heat_capacity:     146.5945052
  energy:            109.6937493

- temperature:       730.0000000
  free_energy:      -114.1983039
  entropy:           308.7101135
  heat_capacity:     146.6709169
  energy:            111.1600790

- temperature:       740.0000000
  free_energy:      -117.2954071
  entropy:           310.7061685
  heat_capacity:     146.7443257
  energy:            112.6271576

- temperature:       750.0000000
  free_energy:      -120.4123411
  entropy:           312.6763962
  heat_capacity:     146.8148860
  energy:            114.0949560

- temperature:       760.0000000
  free_energy:      -123.5488511
  entropy:           314.6214439
  heat_capacity:     146.8827424
  energy:            115.5634463

- temperature:       770.0000000
  free_energy:      -126.7046882
  entropy:           316.5419357
  heat_capacity:     146.9480305
  energy:            117.0326023

- temperature:       780.0000000
  free_energy:      -129.8796099
  entropy:           318.4384727
  heat_capacity:     147.0108777
  energy:            118.5023988

- temperature:       790.0000000
  free_energy:      -133.0733797
  entropy:           320.3116352
  heat_capacity:     147.0714035
  energy:            119.9728121

- temperature:       800.0000000
  free_energy:      -136.2857666
  entropy:           322.1619826
  heat_capacity:     147.1297201
  energy:            121.4438195

- temperature:       810.0000000
  free_energy:      -139.5165451
  entropy:           323.9900551
  heat_capacity:     147.1859333
  energy:            122.9153995

- temperature:       820.0000000
  free_energy:      -142.7654952
  entropy:           325.7963740
  heat_capacity:     147.2401426
  energy:            124.3875315

- temperature:       830.0000000
  free_energy:      -146.0324018
  entropy:           327.5814431
  heat_capacity:     147.2924415
  energy:            125.8601960

- temperature:       840.0000000
  free_energy:      -149.3170548
  entropy:           329.3457489
  heat_capacity:     147.3429185
  energy:            127.3333743

- temperature:       850.0000000
  free_energy:      -152.6192491
  entropy:           331.0897620
  heat_capacity:     147.3916567
  energy:            128.8070486

- temperature:       860.0000000
  free_energy:      -155.9387839
  entropy:           332.8139370
  heat_capacity:     147.4387348
  energy:            130.2812019

- temperature:       870.0000000
  free_energy:      -159.2754632
  entropy:           334.5187140
  heat_capacity:     147.4842270
  energy:            131.7558180

- temperature:       880.0000000
  free_energy:      -162.6290950
  entropy:           336.2045186
  heat_capacity:     147.5282034
  energy:            133.2308814

- temperature:       890.0000000
  free_energy:      -165.9994917
  entropy:           337.8717628
  heat_capacity:     147.5707303
  energy:            134.7063772

- temperature:       900.0000000
  free_energy:      -169.3864697
  entropy:           339.5208456
  heat_capacity:     147.6118705
  energy:            136.1822913

- temperature:       910.0000000
  free_energy:      -172.7898494
  entropy:           341.1521533
  heat_capacity:     147.6516834
  energy:            137.6586102

- temperature:       920.0000000
  free_energy:      -176.2094548
  entropy:           342.7660604
  heat_capacity:     147.6902252
  energy:            139.1353208

- temperature:       930.0000000
  free_energy:      -179.6451138
  entropy:           344.3629295
  heat_capacity:     147.7275493
  energy:            140.6124106

- temperature:       940.0000000
  free_energy:      -183.0966577
  entropy:           345.9431123
  heat_capacity:     147.7637063
  energy:            142.0898679

- temperature:       950.0000000
  free_energy:      -186.5639215
  entropy:           347.5069501
  heat_capacity:     147.7987440
  energy:            143.5676810

- temperature:       960.0000000
  free_energy:      -190.0467434
  entropy:           349.0547735
  heat_capacity:     147.8327082
  energy:            145.0458392

- temperature:       970.0000000
  free_energy:      -193.5449647
  entropy:           350.5869036
  heat_capacity:     147.8656420
  energy:            146.5243318

- temperature:       980.0000000
  free_energy:      -197.0584302
  entropy:           352.1036519
  heat_capacity:     147.8975866
  energy:            148.0031487

- temperature:       990.0000000
  free_energy:      -200.5869875
  entropy:           353.6053210
  heat_capacity:     147.9285810
  energy:            149.4822803

- temperature:      1000.0000000
  free_energy:      -204.1304873
  entropy:           355.0922046
  heat_capacity:     147.9586625
  energy:            150.9617173
