phonopy:
  version: "2.37.1"
  frequency_unit_conversion_factor: 15.633302
  symmetry_tolerance: 1.00000e-05

space_group:
  type: "P6_3/mmc"
  number: 194
  Hall_symbol: "-P 6c 2c"

primitive_matrix:
- [  1.000000000000000,  0.000000000000000,  0.000000000000000 ]
- [  0.000000000000000,  1.000000000000000,  0.000000000000000 ]
- [  0.000000000000000,  0.000000000000000,  1.000000000000000 ]

supercell_matrix:
- [   2,   0,   0 ]
- [   0,   2,   0 ]
- [   0,   0,   3 ]

primitive_cell:
  lattice:
  - [     5.967400860150472,     0.000000000000000,     0.000000000000000 ] # a
  - [    -2.983700349221127,     5.167920367008199,     0.000000000000000 ] # b
  - [    -0.000000032328474,     0.000000021188451,     4.848683883506760 ] # c
  points:
  - symbol: Li # 1
    coordinates: [  0.173922630964300,  0.347845258222493,  0.249999995547510 ]
    mass: 6.940000
  - symbol: Li # 2
    coordinates: [  0.826077375119674,  0.652154752854905,  0.750000007351114 ]
    mass: 6.940000
  - symbol: Li # 3
    coordinates: [  0.826077372882800,  0.173922626691275,  0.750000007635460 ]
    mass: 6.940000
  - symbol: Li # 4
    coordinates: [  0.173922627575055,  0.826077373141355,  0.249999993524677 ]
    mass: 6.940000
  - symbol: Li # 5
    coordinates: [  0.652154747502339,  0.826077372375876,  0.249999994446436 ]
    mass: 6.940000
  - symbol: Li # 6
    coordinates: [  0.347845252535305,  0.173922627643301,  0.750000010645227 ]
    mass: 6.940000
  - symbol: Sn # 7
    coordinates: [  0.333333333648162,  0.666666666936273,  0.750000002680623 ]
    mass: 118.710000
  - symbol: Sn # 8
    coordinates: [  0.666666660011938,  0.333333322314962,  0.249999988441445 ]
    mass: 118.710000
  reciprocal_lattice: # without 2pi
  - [     0.167577145131622,     0.096750714202695,     0.000000000694522 ] # a*
  - [     0.000000000000000,     0.193501433649009,    -0.000000000845589 ] # b*
  - [     0.000000000000000,     0.000000000000000,     0.206241533584318 ] # c*

unit_cell:
  lattice:
  - [     5.967400860150472,     0.000000000000000,     0.000000000000000 ] # a
  - [    -2.983700349221128,     5.167920367008199,     0.000000000000000 ] # b
  - [    -0.000000032328474,     0.000000021188451,     4.848683883506760 ] # c
  points:
  - symbol: Li # 1
    coordinates: [  0.173922630964300,  0.347845258222493,  0.249999995547510 ]
    mass: 6.940000
    reduced_to: 1
  - symbol: Li # 2
    coordinates: [  0.826077375119674,  0.652154752854905,  0.750000007351114 ]
    mass: 6.940000
    reduced_to: 2
  - symbol: Li # 3
    coordinates: [  0.826077372882800,  0.173922626691275,  0.750000007635460 ]
    mass: 6.940000
    reduced_to: 3
  - symbol: Li # 4
    coordinates: [  0.173922627575055,  0.826077373141355,  0.249999993524677 ]
    mass: 6.940000
    reduced_to: 4
  - symbol: Li # 5
    coordinates: [  0.652154747502339,  0.826077372375876,  0.249999994446436 ]
    mass: 6.940000
    reduced_to: 5
  - symbol: Li # 6
    coordinates: [  0.347845252535305,  0.173922627643301,  0.750000010645228 ]
    mass: 6.940000
    reduced_to: 6
  - symbol: Sn # 7
    coordinates: [  0.333333333648163,  0.666666666936273,  0.750000002680623 ]
    mass: 118.710000
    reduced_to: 7
  - symbol: Sn # 8
    coordinates: [  0.666666660011938,  0.333333322314962,  0.249999988441445 ]
    mass: 118.710000
    reduced_to: 8

supercell:
  lattice:
  - [    11.934801720300944,     0.000000000000000,     0.000000000000000 ] # a
  - [    -5.967400698442256,    10.335840734016399,     0.000000000000000 ] # b
  - [    -0.000000096985422,     0.000000063565353,    14.546051650520280 ] # c
  points:
  - symbol: Li # 1
    coordinates: [  0.086961315482150,  0.173922629111247,  0.083333331849170 ]
    mass: 6.940000
    reduced_to: 1
  - symbol: Li # 2
    coordinates: [  0.586961315482150,  0.173922629111247,  0.083333331849170 ]
    mass: 6.940000
    reduced_to: 1
  - symbol: Li # 3
    coordinates: [  0.086961315482150,  0.673922629111247,  0.083333331849170 ]
    mass: 6.940000
    reduced_to: 1
  - symbol: Li # 4
    coordinates: [  0.586961315482150,  0.673922629111247,  0.083333331849170 ]
    mass: 6.940000
    reduced_to: 1
  - symbol: Li # 5
    coordinates: [  0.086961315482150,  0.173922629111247,  0.416666665182503 ]
    mass: 6.940000
    reduced_to: 1
  - symbol: Li # 6
    coordinates: [  0.586961315482150,  0.173922629111247,  0.416666665182503 ]
    mass: 6.940000
    reduced_to: 1
  - symbol: Li # 7
    coordinates: [  0.086961315482150,  0.673922629111247,  0.416666665182503 ]
    mass: 6.940000
    reduced_to: 1
  - symbol: Li # 8
    coordinates: [  0.586961315482150,  0.673922629111247,  0.416666665182503 ]
    mass: 6.940000
    reduced_to: 1
  - symbol: Li # 9
    coordinates: [  0.086961315482150,  0.173922629111247,  0.749999998515837 ]
    mass: 6.940000
    reduced_to: 1
  - symbol: Li # 10
    coordinates: [  0.586961315482150,  0.173922629111247,  0.749999998515837 ]
    mass: 6.940000
    reduced_to: 1
  - symbol: Li # 11
    coordinates: [  0.086961315482150,  0.673922629111247,  0.749999998515837 ]
    mass: 6.940000
    reduced_to: 1
  - symbol: Li # 12
    coordinates: [  0.586961315482150,  0.673922629111247,  0.749999998515837 ]
    mass: 6.940000
    reduced_to: 1
  - symbol: Li # 13
    coordinates: [  0.413038687559837,  0.326077376427452,  0.250000002450371 ]
    mass: 6.940000
    reduced_to: 13
  - symbol: Li # 14
    coordinates: [  0.913038687559837,  0.326077376427452,  0.250000002450371 ]
    mass: 6.940000
    reduced_to: 13
  - symbol: Li # 15
    coordinates: [  0.413038687559837,  0.826077376427452,  0.250000002450371 ]
    mass: 6.940000
    reduced_to: 13
  - symbol: Li # 16
    coordinates: [  0.913038687559837,  0.826077376427452,  0.250000002450371 ]
    mass: 6.940000
    reduced_to: 13
  - symbol: Li # 17
    coordinates: [  0.413038687559837,  0.326077376427452,  0.583333335783705 ]
    mass: 6.940000
    reduced_to: 13
  - symbol: Li # 18
    coordinates: [  0.913038687559837,  0.326077376427452,  0.583333335783705 ]
    mass: 6.940000
    reduced_to: 13
  - symbol: Li # 19
    coordinates: [  0.413038687559837,  0.826077376427452,  0.583333335783705 ]
    mass: 6.940000
    reduced_to: 13
  - symbol: Li # 20
    coordinates: [  0.913038687559837,  0.826077376427452,  0.583333335783705 ]
    mass: 6.940000
    reduced_to: 13
  - symbol: Li # 21
    coordinates: [  0.413038687559837,  0.326077376427452,  0.916666669117038 ]
    mass: 6.940000
    reduced_to: 13
  - symbol: Li # 22
    coordinates: [  0.913038687559837,  0.326077376427452,  0.916666669117038 ]
    mass: 6.940000
    reduced_to: 13
  - symbol: Li # 23
    coordinates: [  0.413038687559837,  0.826077376427452,  0.916666669117038 ]
    mass: 6.940000
    reduced_to: 13
  - symbol: Li # 24
    coordinates: [  0.913038687559837,  0.826077376427452,  0.916666669117038 ]
    mass: 6.940000
    reduced_to: 13
  - symbol: Li # 25
    coordinates: [  0.413038686441400,  0.086961313345637,  0.250000002545153 ]
    mass: 6.940000
    reduced_to: 25
  - symbol: Li # 26
    coordinates: [  0.913038686441400,  0.086961313345637,  0.250000002545153 ]
    mass: 6.940000
    reduced_to: 25
  - symbol: Li # 27
    coordinates: [  0.413038686441400,  0.586961313345637,  0.250000002545153 ]
    mass: 6.940000
    reduced_to: 25
  - symbol: Li # 28
    coordinates: [  0.913038686441400,  0.586961313345637,  0.250000002545153 ]
    mass: 6.940000
    reduced_to: 25
  - symbol: Li # 29
    coordinates: [  0.413038686441400,  0.086961313345637,  0.583333335878487 ]
    mass: 6.940000
    reduced_to: 25
  - symbol: Li # 30
    coordinates: [  0.913038686441400,  0.086961313345637,  0.583333335878487 ]
    mass: 6.940000
    reduced_to: 25
  - symbol: Li # 31
    coordinates: [  0.413038686441400,  0.586961313345637,  0.583333335878487 ]
    mass: 6.940000
    reduced_to: 25
  - symbol: Li # 32
    coordinates: [  0.913038686441400,  0.586961313345637,  0.583333335878487 ]
    mass: 6.940000
    reduced_to: 25
  - symbol: Li # 33
    coordinates: [  0.413038686441400,  0.086961313345637,  0.916666669211820 ]
    mass: 6.940000
    reduced_to: 25
  - symbol: Li # 34
    coordinates: [  0.913038686441400,  0.086961313345637,  0.916666669211820 ]
    mass: 6.940000
    reduced_to: 25
  - symbol: Li # 35
    coordinates: [  0.413038686441400,  0.586961313345637,  0.916666669211820 ]
    mass: 6.940000
    reduced_to: 25
  - symbol: Li # 36
    coordinates: [  0.913038686441400,  0.586961313345637,  0.916666669211820 ]
    mass: 6.940000
    reduced_to: 25
  - symbol: Li # 37
    coordinates: [  0.086961313787528,  0.413038686570678,  0.083333331174892 ]
    mass: 6.940000
    reduced_to: 37
  - symbol: Li # 38
    coordinates: [  0.586961313787528,  0.413038686570678,  0.083333331174892 ]
    mass: 6.940000
    reduced_to: 37
  - symbol: Li # 39
    coordinates: [  0.086961313787528,  0.913038686570678,  0.083333331174892 ]
    mass: 6.940000
    reduced_to: 37
  - symbol: Li # 40
    coordinates: [  0.586961313787528,  0.913038686570678,  0.083333331174892 ]
    mass: 6.940000
    reduced_to: 37
  - symbol: Li # 41
    coordinates: [  0.086961313787528,  0.413038686570678,  0.416666664508226 ]
    mass: 6.940000
    reduced_to: 37
  - symbol: Li # 42
    coordinates: [  0.586961313787528,  0.413038686570678,  0.416666664508226 ]
    mass: 6.940000
    reduced_to: 37
  - symbol: Li # 43
    coordinates: [  0.086961313787528,  0.913038686570678,  0.416666664508226 ]
    mass: 6.940000
    reduced_to: 37
  - symbol: Li # 44
    coordinates: [  0.586961313787528,  0.913038686570678,  0.416666664508226 ]
    mass: 6.940000
    reduced_to: 37
  - symbol: Li # 45
    coordinates: [  0.086961313787528,  0.413038686570678,  0.749999997841559 ]
    mass: 6.940000
    reduced_to: 37
  - symbol: Li # 46
    coordinates: [  0.586961313787528,  0.413038686570678,  0.749999997841559 ]
    mass: 6.940000
    reduced_to: 37
  - symbol: Li # 47
    coordinates: [  0.086961313787528,  0.913038686570678,  0.749999997841559 ]
    mass: 6.940000
    reduced_to: 37
  - symbol: Li # 48
    coordinates: [  0.586961313787528,  0.913038686570678,  0.749999997841559 ]
    mass: 6.940000
    reduced_to: 37
  - symbol: Li # 49
    coordinates: [  0.326077373751169,  0.413038686187938,  0.083333331482145 ]
    mass: 6.940000
    reduced_to: 49
  - symbol: Li # 50
    coordinates: [  0.826077373751169,  0.413038686187938,  0.083333331482145 ]
    mass: 6.940000
    reduced_to: 49
  - symbol: Li # 51
    coordinates: [  0.326077373751169,  0.913038686187938,  0.083333331482145 ]
    mass: 6.940000
    reduced_to: 49
  - symbol: Li # 52
    coordinates: [  0.826077373751169,  0.913038686187938,  0.083333331482145 ]
    mass: 6.940000
    reduced_to: 49
  - symbol: Li # 53
    coordinates: [  0.326077373751169,  0.413038686187938,  0.416666664815479 ]
    mass: 6.940000
    reduced_to: 49
  - symbol: Li # 54
    coordinates: [  0.826077373751169,  0.413038686187938,  0.416666664815479 ]
    mass: 6.940000
    reduced_to: 49
  - symbol: Li # 55
    coordinates: [  0.326077373751169,  0.913038686187938,  0.416666664815479 ]
    mass: 6.940000
    reduced_to: 49
  - symbol: Li # 56
    coordinates: [  0.826077373751169,  0.913038686187938,  0.416666664815479 ]
    mass: 6.940000
    reduced_to: 49
  - symbol: Li # 57
    coordinates: [  0.326077373751169,  0.413038686187938,  0.749999998148812 ]
    mass: 6.940000
    reduced_to: 49
  - symbol: Li # 58
    coordinates: [  0.826077373751169,  0.413038686187938,  0.749999998148812 ]
    mass: 6.940000
    reduced_to: 49
  - symbol: Li # 59
    coordinates: [  0.326077373751169,  0.913038686187938,  0.749999998148812 ]
    mass: 6.940000
    reduced_to: 49
  - symbol: Li # 60
    coordinates: [  0.826077373751169,  0.913038686187938,  0.749999998148812 ]
    mass: 6.940000
    reduced_to: 49
  - symbol: Li # 61
    coordinates: [  0.173922626267652,  0.086961313821650,  0.250000003548409 ]
    mass: 6.940000
    reduced_to: 61
  - symbol: Li # 62
    coordinates: [  0.673922626267652,  0.086961313821650,  0.250000003548409 ]
    mass: 6.940000
    reduced_to: 61
  - symbol: Li # 63
    coordinates: [  0.173922626267652,  0.586961313821650,  0.250000003548409 ]
    mass: 6.940000
    reduced_to: 61
  - symbol: Li # 64
    coordinates: [  0.673922626267652,  0.586961313821650,  0.250000003548409 ]
    mass: 6.940000
    reduced_to: 61
  - symbol: Li # 65
    coordinates: [  0.173922626267652,  0.086961313821650,  0.583333336881742 ]
    mass: 6.940000
    reduced_to: 61
  - symbol: Li # 66
    coordinates: [  0.673922626267652,  0.086961313821650,  0.583333336881742 ]
    mass: 6.940000
    reduced_to: 61
  - symbol: Li # 67
    coordinates: [  0.173922626267652,  0.586961313821650,  0.583333336881742 ]
    mass: 6.940000
    reduced_to: 61
  - symbol: Li # 68
    coordinates: [  0.673922626267652,  0.586961313821650,  0.583333336881742 ]
    mass: 6.940000
    reduced_to: 61
  - symbol: Li # 69
    coordinates: [  0.173922626267652,  0.086961313821650,  0.916666670215076 ]
    mass: 6.940000
    reduced_to: 61
  - symbol: Li # 70
    coordinates: [  0.673922626267652,  0.086961313821650,  0.916666670215076 ]
    mass: 6.940000
    reduced_to: 61
  - symbol: Li # 71
    coordinates: [  0.173922626267652,  0.586961313821650,  0.916666670215076 ]
    mass: 6.940000
    reduced_to: 61
  - symbol: Li # 72
    coordinates: [  0.673922626267652,  0.586961313821650,  0.916666670215076 ]
    mass: 6.940000
    reduced_to: 61
  - symbol: Sn # 73
    coordinates: [  0.166666666824081,  0.333333333468137,  0.250000000893541 ]
    mass: 118.710000
    reduced_to: 73
  - symbol: Sn # 74
    coordinates: [  0.666666666824081,  0.333333333468137,  0.250000000893541 ]
    mass: 118.710000
    reduced_to: 73
  - symbol: Sn # 75
    coordinates: [  0.166666666824081,  0.833333333468137,  0.250000000893541 ]
    mass: 118.710000
    reduced_to: 73
  - symbol: Sn # 76
    coordinates: [  0.666666666824081,  0.833333333468137,  0.250000000893541 ]
    mass: 118.710000
    reduced_to: 73
  - symbol: Sn # 77
    coordinates: [  0.166666666824081,  0.333333333468137,  0.583333334226874 ]
    mass: 118.710000
    reduced_to: 73
  - symbol: Sn # 78
    coordinates: [  0.666666666824081,  0.333333333468137,  0.583333334226874 ]
    mass: 118.710000
    reduced_to: 73
  - symbol: Sn # 79
    coordinates: [  0.166666666824081,  0.833333333468137,  0.583333334226874 ]
    mass: 118.710000
    reduced_to: 73
  - symbol: Sn # 80
    coordinates: [  0.666666666824081,  0.833333333468137,  0.583333334226874 ]
    mass: 118.710000
    reduced_to: 73
  - symbol: Sn # 81
    coordinates: [  0.166666666824081,  0.333333333468137,  0.916666667560208 ]
    mass: 118.710000
    reduced_to: 73
  - symbol: Sn # 82
    coordinates: [  0.666666666824081,  0.333333333468137,  0.916666667560208 ]
    mass: 118.710000
    reduced_to: 73
  - symbol: Sn # 83
    coordinates: [  0.166666666824081,  0.833333333468137,  0.916666667560208 ]
    mass: 118.710000
    reduced_to: 73
  - symbol: Sn # 84
    coordinates: [  0.666666666824081,  0.833333333468137,  0.916666667560208 ]
    mass: 118.710000
    reduced_to: 73
  - symbol: Sn # 85
    coordinates: [  0.333333330005969,  0.166666661157481,  0.083333329480482 ]
    mass: 118.710000
    reduced_to: 85
  - symbol: Sn # 86
    coordinates: [  0.833333330005969,  0.166666661157481,  0.083333329480482 ]
    mass: 118.710000
    reduced_to: 85
  - symbol: Sn # 87
    coordinates: [  0.333333330005969,  0.666666661157481,  0.083333329480482 ]
    mass: 118.710000
    reduced_to: 85
  - symbol: Sn # 88
    coordinates: [  0.833333330005969,  0.666666661157481,  0.083333329480482 ]
    mass: 118.710000
    reduced_to: 85
  - symbol: Sn # 89
    coordinates: [  0.333333330005969,  0.166666661157481,  0.416666662813815 ]
    mass: 118.710000
    reduced_to: 85
  - symbol: Sn # 90
    coordinates: [  0.833333330005969,  0.166666661157481,  0.416666662813815 ]
    mass: 118.710000
    reduced_to: 85
  - symbol: Sn # 91
    coordinates: [  0.333333330005969,  0.666666661157481,  0.416666662813815 ]
    mass: 118.710000
    reduced_to: 85
  - symbol: Sn # 92
    coordinates: [  0.833333330005969,  0.666666661157481,  0.416666662813815 ]
    mass: 118.710000
    reduced_to: 85
  - symbol: Sn # 93
    coordinates: [  0.333333330005969,  0.166666661157481,  0.749999996147148 ]
    mass: 118.710000
    reduced_to: 85
  - symbol: Sn # 94
    coordinates: [  0.833333330005969,  0.166666661157481,  0.749999996147148 ]
    mass: 118.710000
    reduced_to: 85
  - symbol: Sn # 95
    coordinates: [  0.333333330005969,  0.666666661157481,  0.749999996147148 ]
    mass: 118.710000
    reduced_to: 85
  - symbol: Sn # 96
    coordinates: [  0.833333330005969,  0.666666661157481,  0.749999996147148 ]
    mass: 118.710000
    reduced_to: 85

displacements:
- atom:    1
  displacement:
    [  -0.0031715163641984,  0.0054932271772991,  0.0077308433647439 ]
  forces:
  - [   0.0057979989796877,  0.0066352710127831, -0.0158967263996601 ]
  - [   0.0012627067044377,  0.0176615826785564, -0.0001573020854266 ]
  - [   0.0000537903979421,  0.0176528654992580, -0.0000555107253604 ]
  - [  -0.0000062044709921,  0.0176871977746487, -0.0000553489080630 ]
  - [   0.0000177379697561,  0.0181607604026794, -0.0003818183322437 ]
  - [  -0.0000126957893372,  0.0177584625780582,  0.0000294095952995 ]
  - [   0.0000160988420248,  0.0177855268120766,  0.0000167830148712 ]
  - [  -0.0000209361314774,  0.0177829042077065, -0.0000003756722435 ]
  - [   0.0000176513567567,  0.0178470574319363, -0.0001481471699663 ]
  - [  -0.0000128392130136,  0.0177716091275215,  0.0000206499826163 ]
  - [  -0.0000255322083831,  0.0177803300321102,  0.0000047453213483 ]
  - [   0.0000206343829632,  0.0177773833274841,  0.0000213805469684 ]
  - [  -0.0002050580806099, -0.0178161673247814, -0.0000365958549082 ]
  - [   0.0004289376665838, -0.0179064311087132, -0.0002306257374585 ]
  - [   0.0000085880756160, -0.0177958272397518, -0.0000031645249692 ]
  - [  -0.0000070770483944, -0.0178442224860191,  0.0000348943285644 ]
  - [  -0.0000077110817074, -0.0177761837840080, -0.0000340496189892 ]
  - [   0.0000026341876946, -0.0177818872034550, -0.0000341767445207 ]
  - [   0.0000008036171266, -0.0177816301584244, -0.0000225990879699 ]
  - [   0.0000005212167480, -0.0177771225571632,  0.0000098482705653 ]
  - [   0.0002643160696607, -0.0176329575479031, -0.0000954454008024 ]
  - [  -0.0000456309062429, -0.0177197232842445,  0.0000959358512773 ]
  - [   0.0000088327233243, -0.0177572295069695,  0.0000243618560489 ]
  - [  -0.0000070044770837, -0.0182839035987854, -0.0002784964162856 ]
  - [  -0.0154456011950970,  0.0087763480842113,  0.0002008620649576 ]
  - [  -0.0166929960250854,  0.0080877151340246,  0.0018429905176163 ]
  - [  -0.0155946351587772,  0.0086749065667391,  0.0001921281218529 ]
  - [  -0.0154048800468445,  0.0088902022689581,  0.0000033934484236 ]
  - [  -0.0153967961668968,  0.0088867656886578, -0.0000343509018421 ]
  - [  -0.0154040269553661,  0.0088927131146193, -0.0000052079558372 ]
  - [  -0.0154016874730587,  0.0088846795260906, -0.0000350046902895 ]
  - [  -0.0153953284025192,  0.0088872257620096, -0.0000034005497582 ]
  - [  -0.0154468528926373,  0.0088891796767712,  0.0001027846956276 ]
  - [  -0.0137321688234806,  0.0094929672777653,  0.0020517683587968 ]
  - [  -0.0151718370616436,  0.0090589988976717,  0.0001135430065915 ]
  - [  -0.0154018774628639,  0.0089019276201725, -0.0000019883736968 ]
  - [   0.0138992890715599, -0.0058105960488319, -0.0004737211565953 ]
  - [   0.0153888687491417, -0.0086563639342785, -0.0000472278334200 ]
  - [   0.0142329744994640, -0.0071875825524330,  0.0000244644470513 ]
  - [   0.0154225714504719, -0.0086348615586758, -0.0000474082553410 ]
  - [   0.0160162225365639, -0.0089160948991776, -0.0004970997106284 ]
  - [   0.0153817012906075, -0.0089030470699072,  0.0000066901557148 ]
  - [   0.0154272988438606, -0.0088773053139448, -0.0000122613273561 ]
  - [   0.0153875574469566, -0.0088917650282383,  0.0000014241086319 ]
  - [   0.0152327269315720, -0.0089747272431850, -0.0002224998315796 ]
  - [   0.0153857246041298, -0.0088868550956249,  0.0000071963295341 ]
  - [   0.0153695158660412, -0.0089714992791414, -0.0000556244049221 ]
  - [   0.0154019445180893, -0.0088833160698414,  0.0000120402546600 ]
  - [  -0.0146314203739166, -0.0076187252998352, -0.0004655643133447 ]
  - [  -0.0154880620539188, -0.0088637117296457, -0.0000474954067613 ]
  - [  -0.0154887326061726, -0.0088288486003876, -0.0000469502992928 ]
  - [  -0.0146973952651024, -0.0079378336668015,  0.0000226095653488 ]
  - [  -0.0160595923662186, -0.0089679788798094, -0.0006815716624260 ]
  - [  -0.0153890587389469, -0.0088978819549084,  0.0000124464277178 ]
  - [  -0.0153841115534306, -0.0088811535388231,  0.0000081176403910 ]
  - [  -0.0154361277818680, -0.0088374111801386, -0.0000578071922064 ]
  - [  -0.0152756497263908, -0.0090261958539486, -0.0000413716770709 ]
  - [  -0.0153933949768543, -0.0088815335184336,  0.0000013185199350 ]
  - [  -0.0153987333178520, -0.0088728629052639,  0.0000055017881095 ]
  - [  -0.0153785273432732, -0.0089316219091415, -0.0000105707440525 ]
  - [   0.0161180756986141,  0.0084059070795774,  0.0007269211928360 ]
  - [   0.0153701752424240,  0.0088296569883823, -0.0000189747661352 ]
  - [   0.0155818909406662,  0.0087688881903887,  0.0001519962097518 ]
  - [   0.0153941139578819,  0.0088940151035786, -0.0000009692448657 ]
  - [   0.0154044628143311,  0.0088936090469360, -0.0000052832765505 ]
  - [   0.0154027082026005,  0.0088908914476633, -0.0000344887375832 ]
  - [   0.0154027156531811,  0.0088866576552391, -0.0000350062255166 ]
  - [   0.0153950639069080,  0.0088886097073555, -0.0000033120013541 ]
  - [   0.0131807848811150,  0.0097958259284496,  0.0031279444228858 ]
  - [   0.0153709128499031,  0.0089437663555145,  0.0003269379376434 ]
  - [   0.0151600427925587,  0.0091493353247643,  0.0001533679314889 ]
  - [   0.0153910666704178,  0.0089058876037598,  0.0000023255124688 ]
  - [   0.0001576072827447,  0.0045244805514812,  0.0074563771486282 ]
  - [  -0.0001562759280205, -0.0000332072377205, -0.0000089001841843 ]
  - [   0.0000081881880760,  0.0002010352909565,  0.0000373681541532 ]
  - [  -0.0000543929636478, -0.0000055523123592,  0.0001782971085049 ]
  - [  -0.0000102077283373, -0.0000191628932953, -0.0000117532908916 ]
  - [   0.0000027511268854, -0.0000080764293671, -0.0000293827615678 ]
  - [   0.0000052284449339,  0.0000056233257055, -0.0000227193813771 ]
  - [  -0.0000056959688663,  0.0000081551261246, -0.0000224732211791 ]
  - [   0.0001387736119796, -0.0013700239360332,  0.0033836904913187 ]
  - [  -0.0001561492681503, -0.0000330023467541,  0.0000346140004694 ]
  - [  -0.0001236274838448,  0.0001608897000551,  0.0001203496940434 ]
  - [   0.0000780895352364, -0.0000447104685009, -0.0000192545703612 ]
  - [  -0.0018220130586997,  0.0004904442466795, -0.0001293438253924 ]
  - [  -0.0027833359781653, -0.0000375588424504, -0.0001427328970749 ]
  - [  -0.0000293999910355,  0.0001773341791704, -0.0002203681506217 ]
  - [  -0.0000477109570056,  0.0000350959599018, -0.0000319965183735 ]
  - [   0.0002147297636839, -0.0001541770179756,  0.0001888908445835 ]
  - [  -0.0001919458445627, -0.0002051818300970,  0.0001626536250114 ]
  - [   0.0000001490116119,  0.0002425312995911,  0.0001571737229824 ]
  - [  -0.0000041590537876, -0.0000086370855570,  0.0000011734664440 ]
  - [   0.0000042717656470,  0.0001731741358526, -0.0001071617007256 ]
  - [   0.0000195351603907,  0.0001228752662428, -0.0000804066658020 ]
  - [   0.0000004433095455, -0.0000978391617537,  0.0000422745943069 ]
  - [  -0.0000042920000851,  0.0000109057873487,  0.0000224001705647 ]
- atom:    1
  displacement:
    [   0.0031715163641984, -0.0054932271772991, -0.0077308433647439 ]
  forces:
  - [  -0.0058323424309492,  0.0287358686327934,  0.0156808458268642 ]
  - [  -0.0012651644647121,  0.0178920850157738,  0.0001573995541548 ]
  - [  -0.0000546639785171,  0.0179003700613976,  0.0000544794602320 ]
  - [   0.0000058151781559,  0.0178651846945286,  0.0000545842340216 ]
  - [  -0.0000179195776582,  0.0173974335193634,  0.0003650711150840 ]
  - [   0.0000116191804409,  0.0177944153547287, -0.0000282358378172 ]
  - [  -0.0000163856893778,  0.0177668407559395, -0.0000160952331498 ]
  - [   0.0000206883996725,  0.0177691169083118,  0.0000009709619917 ]
  - [  -0.0000179875642061,  0.0177011713385582,  0.0001602015690878 ]
  - [   0.0000115167349577,  0.0177809670567513, -0.0000179097987711 ]
  - [   0.0000249734148383,  0.0177723728120327, -0.0000017203856260 ]
  - [  -0.0000205626711249,  0.0177744850516319, -0.0000188950798474 ]
  - [   0.0001956398482434, -0.0177374631166458,  0.0000360868871212 ]
  - [  -0.0004094781470485, -0.0176504105329514,  0.0002244147472084 ]
  - [  -0.0000077806153058, -0.0177579745650291,  0.0000025228655431 ]
  - [   0.0000071816853051, -0.0177099928259850, -0.0000352901406586 ]
  - [   0.0000073024166340, -0.0177767761051655,  0.0000315336510539 ]
  - [  -0.0000014264951460, -0.0177714824676514,  0.0000313613563776 ]
  - [  -0.0000001533168472, -0.0177708603441715,  0.0000201888251468 ]
  - [  -0.0000004487557419, -0.0177752636373043, -0.0000121174380183 ]
  - [  -0.0002671869588085, -0.0179245062172413,  0.0000965550134424 ]
  - [   0.0000478978618048, -0.0178339704871178, -0.0000944541825447 ]
  - [  -0.0000076219412222, -0.0177957378327847, -0.0000239824294113 ]
  - [   0.0000073108822107, -0.0172593705356121,  0.0002837706124410 ]
  - [  -0.0153455585241318,  0.0090002994984388, -0.0002026949077845 ]
  - [  -0.0141097530722618,  0.0096683502197266, -0.0018239803612232 ]
  - [  -0.0152006894350052,  0.0090919770300388, -0.0001945290714502 ]
  - [  -0.0153843462467194,  0.0088864378631115, -0.0000048386282288 ]
  - [  -0.0153923816978931,  0.0088887438178062,  0.0000326335430145 ]
  - [  -0.0153840780258179,  0.0088833048939705,  0.0000029187649488 ]
  - [  -0.0153881199657917,  0.0088918339461088,  0.0000320505350828 ]
  - [  -0.0153943561017513,  0.0088894963264465,  0.0000005155452527 ]
  - [  -0.0153448358178139,  0.0088881310075521, -0.0001064833631972 ]
  - [  -0.0170750990509987,  0.0082838553935289, -0.0020640143193305 ]
  - [  -0.0156199336051941,  0.0087167285382748, -0.0001124235568568 ]
  - [  -0.0153880938887596,  0.0088765211403370,  0.0000024130567908 ]
  - [   0.0168670378625393, -0.0119341593235731,  0.0004424572107382 ]
  - [   0.0153990946710110, -0.0091222189366817,  0.0000472827814519 ]
  - [   0.0165728591382504, -0.0106105748564005, -0.0000166664831340 ]
  - [   0.0153695680201054, -0.0091372951865196,  0.0000470799277537 ]
  - [   0.0147665552794933, -0.0088594406843185,  0.0005082162097096 ]
  - [   0.0154079459607601, -0.0088737960904837, -0.0000055544078350 ]
  - [   0.0153625421226025, -0.0088981706649065,  0.0000135707668960 ]
  - [   0.0154029466211796, -0.0088829006999731, -0.0000007088528946 ]
  - [   0.0155528187751770, -0.0088002942502499,  0.0002225690986961 ]
  - [   0.0154032483696938, -0.0088901780545712, -0.0000045946799219 ]
  - [   0.0154193863272667, -0.0088034477084875,  0.0000573853030801 ]
  - [   0.0153885483741760, -0.0088903531432152, -0.0000097118900158 ]
  - [  -0.0161547660827637, -0.0101659856736660,  0.0004503599484451 ]
  - [  -0.0153009742498398, -0.0089103709906340,  0.0000468703801744 ]
  - [  -0.0153017230331898, -0.0089485943317413,  0.0000475523993373 ]
  - [  -0.0160942263901234, -0.0098328944295645, -0.0000185952121683 ]
  - [  -0.0147239007055759, -0.0088081900030375,  0.0006877500563860 ]
  - [  -0.0154005512595177, -0.0088786818087101, -0.0000112543348223 ]
  - [  -0.0154057256877422, -0.0088941231369972, -0.0000073900446296 ]
  - [  -0.0153536945581436, -0.0089378599077463,  0.0000585557427257 ]
  - [  -0.0155096724629402, -0.0087486468255520,  0.0000398345291615 ]
  - [  -0.0153962522745132, -0.0088946521282196,  0.0000011310912669 ]
  - [  -0.0153916254639626, -0.0089018791913986, -0.0000030959490687 ]
  - [  -0.0154105462133884, -0.0088432542979717,  0.0000118042808026 ]
  - [   0.0146697387099266,  0.0093648731708527, -0.0007332895183936 ]
  - [   0.0154224596917629,  0.0089438948780298,  0.0000202041119337 ]
  - [   0.0152122788131237,  0.0090021528303623, -0.0001551219902467 ]
  - [   0.0153953805565834,  0.0088823400437832, -0.0000001796870492 ]
  - [   0.0153851732611656,  0.0088816583156586,  0.0000028643989936 ]
  - [   0.0153868831694126,  0.0088842585682869,  0.0000324621796608 ]
  - [   0.0153869725763798,  0.0088906884193420,  0.0000320253529935 ]
  - [   0.0153947919607162,  0.0088877547532320,  0.0000006293703336 ]
  - [   0.0176586322486401,  0.0079653970897198, -0.0031948836985976 ]
  - [   0.0154213756322861,  0.0088327378034592, -0.0003247194108553 ]
  - [   0.0156326070427895,  0.0086232200264931, -0.0001521068334114 ]
  - [   0.0153990313410759,  0.0088724847882986, -0.0000021737068892 ]
  - [  -0.0001331497624051, -0.0043207965791225, -0.0071426387876272 ]
  - [   0.0001546759158373,  0.0000320747494698,  0.0000052282121032 ]
  - [  -0.0000095814466476, -0.0001969262957573, -0.0000406219623983 ]
  - [   0.0000557526946068,  0.0000110012479126, -0.0001807064400055 ]
  - [   0.0000098827622423,  0.0000189617276192,  0.0000034570693970 ]
  - [  -0.0000035539269447,  0.0000074468553066,  0.0000227023847401 ]
  - [  -0.0000056289136410, -0.0000033117830753,  0.0000172981526703 ]
  - [   0.0000056810677052, -0.0000058377627283,  0.0000172713189386 ]
  - [  -0.0001511675945949,  0.0013940818607807, -0.0033765237312764 ]
  - [   0.0001551881432533,  0.0000323988497257, -0.0000314954668283 ]
  - [   0.0001261290162802, -0.0001656766980886, -0.0001197610981762 ]
  - [  -0.0000790543854237,  0.0000431076623499,  0.0000217518536374 ]
  - [   0.0018257539486513, -0.0004837927408516,  0.0001380824833177 ]