# Thermal properties / unit cell (natom)

unit:
  temperature:   K
  free_energy:   kJ/mol
  entropy:       J/K/mol
  heat_capacity: J/K/mol

natom: 8    
cutoff_frequency: 0.00000
num_modes: 181944
num_integrated_modes: 181943

zero_point_energy:      31.8343577

thermal_properties:
- temperature:         0.0000000
  free_energy:        31.8343577
  entropy:             0.0000000
  heat_capacity:       0.0000000
  energy:             31.8343577

- temperature:        10.0000000
  free_energy:        31.8331092
  entropy:             0.4374751
  heat_capacity:       1.4356576
  energy:             31.8374840

- temperature:        20.0000000
  free_energy:        31.8136591
  entropy:             4.2601968
  heat_capacity:      12.1996431
  energy:             31.8988631

- temperature:        30.0000000
  free_energy:        31.7359493
  entropy:            11.6161130
  heat_capacity:      24.4410290
  energy:             32.0844327

- temperature:        40.0000000
  free_energy:        31.5780981
  entropy:            20.0149260
  heat_capacity:      34.1371995
  energy:             32.3786952

- temperature:        50.0000000
  free_energy:        31.3350799
  entropy:            28.6083612
  heat_capacity:      43.2820621
  energy:             32.7654979

- temperature:        60.0000000
  free_energy:        31.0054214
  entropy:            37.3565270
  heat_capacity:      53.1283904
  energy:             33.2468131

- temperature:        70.0000000
  free_energy:        30.5871709
  entropy:            46.3356194
  heat_capacity:      63.7392089
  energy:             33.8306642

- temperature:        80.0000000
  free_energy:        30.0778836
  entropy:            55.5602128
  heat_capacity:      74.6805849
  energy:             34.5227006

- temperature:        90.0000000
  free_energy:        29.4753034
  entropy:            64.9828145
  heat_capacity:      85.4707405
  energy:             35.3237567

- temperature:       100.0000000
  free_energy:        28.7778261
  entropy:            74.5256508
  heat_capacity:      95.7486395
  energy:             36.2303912

- temperature:       110.0000000
  free_energy:        27.9846675
  entropy:            84.1056550
  heat_capacity:     105.2984999
  energy:             37.2362895

- temperature:       120.0000000
  free_energy:        27.0958401
  entropy:            93.6479838
  heat_capacity:     114.0221181
  energy:             38.3335982

- temperature:       130.0000000
  free_energy:        26.1120393
  entropy:           103.0913361
  heat_capacity:     121.9016673
  energy:             39.5139130

- temperature:       140.0000000
  free_energy:        25.0345015
  entropy:           112.3886943
  heat_capacity:     128.9682118
  energy:             40.7689187

- temperature:       150.0000000
  free_energy:        23.8648670
  entropy:           121.5059352
  heat_capacity:     135.2791363
  energy:             42.0907573

- temperature:       160.0000000
  free_energy:        22.6050620
  entropy:           130.4196895
  heat_capacity:     140.9034081
  energy:             43.4722123

- temperature:       170.0000000
  free_energy:        21.2572017
  entropy:           139.1151406
  heat_capacity:     145.9126096
  energy:             44.9067756

- temperature:       180.0000000
  free_energy:        19.8235149
  entropy:           147.5840578
  heat_capacity:     150.3758567
  energy:             46.3886453

- temperature:       190.0000000
  free_energy:        18.3062870
  entropy:           155.8231582
  heat_capacity:     154.3571910
  energy:             47.9126870

- temperature:       200.0000000
  free_energy:        16.7078169
  entropy:           163.8327972
  heat_capacity:     157.9144757
  energy:             49.4743763

- temperature:       210.0000000
  free_energy:        15.0303862
  entropy:           171.6159479
  heat_capacity:     161.0991654
  energy:             51.0697352

- temperature:       220.0000000
  free_energy:        13.2762370
  entropy:           179.1774194
  heat_capacity:     163.9565529
  energy:             52.6952692

- temperature:       230.0000000
  free_energy:        11.4475566
  entropy:           186.5232664
  heat_capacity:     166.5262536
  energy:             54.3479079

- temperature:       240.0000000
  free_energy:         9.5464676
  entropy:           193.6603472
  heat_capacity:     168.8427861
  energy:             56.0249509

- temperature:       250.0000000
  free_energy:         7.5750211
  entropy:           200.5959963
  heat_capacity:     170.9361671
  energy:             57.7240202

- temperature:       260.0000000
  free_energy:         5.5351939
  entropy:           207.3377841
  heat_capacity:     172.8324793
  energy:             59.4430177

- temperature:       270.0000000
  free_energy:         3.4288862
  entropy:           213.8933429
  heat_capacity:     174.5543907
  energy:             61.1800888

- temperature:       280.0000000
  free_energy:         1.2579225
  entropy:           220.2702418
  heat_capacity:     176.1216174
  energy:             62.9335902

- temperature:       290.0000000
  free_energy:        -0.9759478
  entropy:           226.4758995
  heat_capacity:     177.5513308
  energy:             64.7020630

- temperature:       300.0000000
  free_energy:        -3.2710487
  entropy:           232.5175244
  heat_capacity:     178.8585093
  energy:             66.4842086

- temperature:       310.0000000
  free_energy:        -5.6257748
  entropy:           238.4020753
  heat_capacity:     180.0562437
  energy:             68.2788686

- temperature:       320.0000000
  free_energy:        -8.0385890
  entropy:           244.1362374
  heat_capacity:     181.1559976
  energy:             70.0850070

- temperature:       330.0000000
  free_energy:       -10.5080196
  entropy:           249.7264096
  heat_capacity:     182.1678312
  energy:             71.9016956

- temperature:       340.0000000
  free_energy:       -13.0326576
  entropy:           255.1786993
  heat_capacity:     183.1005930
  energy:             73.7281002

- temperature:       350.0000000
  free_energy:       -15.6111534
  entropy:           260.4989239
  heat_capacity:     183.9620826
  energy:             75.5634700

- temperature:       360.0000000
  free_energy:       -18.2422143
  entropy:           265.6926156
  heat_capacity:     184.7591910
  energy:             77.4071273

- temperature:       370.0000000
  free_energy:       -20.9246015
  entropy:           270.7650299
  heat_capacity:     185.4980199
  energy:             79.2584596

- temperature:       380.0000000
  free_energy:       -23.6571273
  entropy:           275.7211549
  heat_capacity:     186.1839842
  energy:             81.1169116

- temperature:       390.0000000
  free_energy:       -26.4386527
  entropy:           280.5657229
  heat_capacity:     186.8219000
  energy:             82.9819792

- temperature:       400.0000000
  free_energy:       -29.2680849
  entropy:           285.3032216
  heat_capacity:     187.4160600
  energy:             84.8532038

- temperature:       410.0000000
  free_energy:       -32.1443745
  entropy:           289.9379069
  heat_capacity:     187.9702986
  energy:             86.7301674

- temperature:       420.0000000
  free_energy:       -35.0665138
  entropy:           294.4738141
  heat_capacity:     188.4880477
  energy:             88.6124882

- temperature:       430.0000000
  free_energy:       -38.0335343
  entropy:           298.9147704
  heat_capacity:     188.9723857
  energy:             90.4998170

- temperature:       440.0000000
  free_energy:       -41.0445048
  entropy:           303.2644058
  heat_capacity:     189.4260788
  energy:             92.3918338

- temperature:       450.0000000
  free_energy:       -44.0985295
  entropy:           307.5261650
  heat_capacity:     189.8516178
  energy:             94.2882447

- temperature:       460.0000000
  free_energy:       -47.1947461
  entropy:           311.7033171
  heat_capacity:     190.2512500
  energy:             96.1887798

- temperature:       470.0000000
  free_energy:       -50.3323242
  entropy:           315.7989667
  heat_capacity:     190.6270059
  energy:             98.0931902

- temperature:       480.0000000
  free_energy:       -53.5104636
  entropy:           319.8160626
  heat_capacity:     190.9807242
  energy:            100.0012465

- temperature:       490.0000000
  free_energy:       -56.7283930
  entropy:           323.7574076
  heat_capacity:     191.3140724
  energy:            101.9127368

- temperature:       500.0000000
  free_energy:       -59.9853682
  entropy:           327.6256664
  heat_capacity:     191.6285655
  energy:            103.8274651

- temperature:       510.0000000
  free_energy:       -63.2806711
  entropy:           331.4233744
  heat_capacity:     191.9255818
  energy:            105.7452498

- temperature:       520.0000000
  free_energy:       -66.6136085
  entropy:           335.1529446
  heat_capacity:     192.2063777
  energy:            107.6659226

- temperature:       530.0000000
  free_energy:       -69.9835106
  entropy:           338.8166749
  heat_capacity:     192.4720999
  energy:            109.5893271

- temperature:       540.0000000
  free_energy:       -73.3897299
  entropy:           342.4167551
  heat_capacity:     192.7237969
  energy:            111.5153179

- temperature:       550.0000000
  free_energy:       -76.8316405
  entropy:           345.9552727
  heat_capacity:     192.9624284
  energy:            113.4437595

- temperature:       560.0000000
  free_energy:       -80.3086368
  entropy:           349.4342190
  heat_capacity:     193.1888743
  energy:            115.3745259

- temperature:       570.0000000
  free_energy:       -83.8201326
  entropy:           352.8554943
  heat_capacity:     193.4039425
  energy:            117.3074991

- temperature:       580.0000000
  free_energy:       -87.3655605
  entropy:           356.2209133
  heat_capacity:     193.6083755
  energy:            119.2425693

- temperature:       590.0000000
  free_energy:       -90.9443705
  entropy:           359.5322101
  heat_capacity:     193.8028571
  energy:            121.1796335

- temperature:       600.0000000
  free_energy:       -94.5560298
  entropy:           362.7910419
  heat_capacity:     193.9880171
  energy:            123.1185953

- temperature:       610.0000000
  free_energy:       -98.2000217
  entropy:           365.9989941
  heat_capacity:     194.1644370
  energy:            125.0593647

- temperature:       620.0000000
  free_energy:      -101.8758451
  entropy:           369.1575837
  heat_capacity:     194.3326540
  energy:            127.0018567

- temperature:       630.0000000
  free_energy:      -105.5830137
  entropy:           372.2682631
  heat_capacity:     194.4931648
  energy:            128.9459921

- temperature:       640.0000000
  free_energy:      -109.3210554
  entropy:           375.3324238
  heat_capacity:     194.6464296
  energy:            130.8916959

- temperature:       650.0000000
  free_energy:      -113.0895116
  entropy:           378.3513992
  heat_capacity:     194.7928748
  energy:            132.8388979

- temperature:       660.0000000
  free_energy:      -116.8879370
  entropy:           381.3264681
  heat_capacity:     194.9328962
  energy:            134.7875320

- temperature:       670.0000000
  free_energy:      -120.7158987
  entropy:           384.2588572
  heat_capacity:     195.0668616
  energy:            136.7375357

- temperature:       680.0000000
  free_energy:      -124.5729758
  entropy:           387.1497441
  heat_capacity:     195.1951130
  energy:            138.6888502

- temperature:       690.0000000
  free_energy:      -128.4587590
  entropy:           390.0002593
  heat_capacity:     195.3179685
  energy:            140.6414199

- temperature:       700.0000000
  free_energy:      -132.3728500
  entropy:           392.8114894
  heat_capacity:     195.4357249
  energy:            142.5951925

- temperature:       710.0000000
  free_energy:      -136.3148613
  entropy:           395.5844784
  heat_capacity:     195.5486588
  energy:            144.5501184

- temperature:       720.0000000
  free_energy:      -140.2844155
  entropy:           398.3202305
  heat_capacity:     195.6570284
  energy:            146.5061505

- temperature:       730.0000000
  free_energy:      -144.2811450
  entropy:           401.0197117
  heat_capacity:     195.7610749
  energy:            148.4632445

- temperature:       740.0000000
  free_energy:      -148.3046919
  entropy:           403.6838517
  heat_capacity:     195.8610240
  energy:            150.4213583

- temperature:       750.0000000
  free_energy:      -152.3547072
  entropy:           406.3135457
  heat_capacity:     195.9570870
  energy:            152.3804521

- temperature:       760.0000000
  free_energy:      -156.4308509
  entropy:           408.9096562
  heat_capacity:     196.0494615
  energy:            154.3404878

- temperature:       770.0000000
  free_energy:      -160.5327912
  entropy:           411.4730140
  heat_capacity:     196.1383332
  energy:            156.3014296

- temperature:       780.0000000
  free_energy:      -164.6602047
  entropy:           414.0044206
  heat_capacity:     196.2238759
  energy:            158.2632434

- temperature:       790.0000000
  free_energy:      -168.8127757
  entropy:           416.5046484
  heat_capacity:     196.3062531
  energy:            160.2258966

- temperature:       800.0000000
  free_energy:      -172.9901962
  entropy:           418.9744432
  heat_capacity:     196.3856184
  energy:            162.1893584

- temperature:       810.0000000
  free_energy:      -177.1921655
  entropy:           421.4145246
  heat_capacity:     196.4621161
  energy:            164.1535994

- temperature:       820.0000000
  free_energy:      -181.4183900
  entropy:           423.8255873
  heat_capacity:     196.5358820
  energy:            166.1185916

- temperature:       830.0000000
  free_energy:      -185.6685828
  entropy:           426.2083025
  heat_capacity:     196.6070443
  energy:            168.0843083

- temperature:       840.0000000
  free_energy:      -189.9424637
  entropy:           428.5633189
  heat_capacity:     196.6757233
  energy:            170.0507242

- temperature:       850.0000000
  free_energy:      -194.2397589
  entropy:           430.8912633
  heat_capacity:     196.7420330
  energy:            172.0178149

- temperature:       860.0000000
  free_energy:      -198.5602007
  entropy:           433.1927419
  heat_capacity:     196.8060804
  energy:            173.9855573

- temperature:       870.0000000
  free_energy:      -202.9035275
  entropy:           435.4683412
  heat_capacity:     196.8679671
  energy:            175.9539293

- temperature:       880.0000000
  free_energy:      -207.2694832
  entropy:           437.7186284
  heat_capacity:     196.9277887
  energy:            177.9229098

- temperature:       890.0000000
  free_energy:      -211.6578175
  entropy:           439.9441528
  heat_capacity:     196.9856358
  energy:            179.8924785

- temperature:       900.0000000
  free_energy:      -216.0682855
  entropy:           442.1454463
  heat_capacity:     197.0415939
  energy:            181.8626162

- temperature:       910.0000000
  free_energy:      -220.5006474
  entropy:           444.3230239
  heat_capacity:     197.0957442
  energy:            183.8333044

- temperature:       920.0000000
  free_energy:      -224.9546686
  entropy:           446.4773847
  heat_capacity:     197.1481633
  energy:            185.8045253

- temperature:       930.0000000
  free_energy:      -229.4301193
  entropy:           448.6090123
  heat_capacity:     197.1989241
  energy:            187.7762621

- temperature:       940.0000000
  free_energy:      -233.9267746
  entropy:           450.7183756
  heat_capacity:     197.2480956
  energy:            189.7484985

- temperature:       950.0000000
  free_energy:      -238.4444141
  entropy:           452.8059295
  heat_capacity:     197.2957431
  energy:            191.7212189

- temperature:       960.0000000
  free_energy:      -242.9828220
  entropy:           454.8721151
  heat_capacity:     197.3419288
  energy:            193.6944085

- temperature:       970.0000000
  free_energy:      -247.5417866
  entropy:           456.9173603
  heat_capacity:     197.3867117
  energy:            195.6680528

- temperature:       980.0000000
  free_energy:      -252.1211008
  entropy:           458.9420806
  heat_capacity:     197.4301478
  energy:            197.6421382

- temperature:       990.0000000
  free_energy:      -256.7205612
  entropy:           460.9466794
  heat_capacity:     197.4722905
  energy:            199.6166515

- temperature:      1000.0000000
  free_energy:      -261.3399686
  entropy:           462.9315485
  heat_capacity:     197.5131905
  energy:            201.5915799
