# Tetrahedron method
       -1.1665353630        0.0000000000
       -1.0965432485        0.0000000000
       -1.0265511341        0.0000000000
       -0.9565590196        0.0000000000
       -0.8865669052        0.0000000000
       -0.8165747908        0.0000000000
       -0.7465826763        0.0000000000
       -0.6765905619        0.0000000000
       -0.6065984474        0.0000000000
       -0.5366063330        0.0000000000
       -0.4666142186        0.0000000000
       -0.3966221041        0.0000000000
       -0.3266299897        0.0000000000
       -0.2566378752        0.0000000000
       -0.1866457608        0.0000000000
       -0.1166536464        0.0000000000
       -0.0466615319        0.0000000000
        0.0233305825        0.0001643824
        0.0933226970        0.0024587990
        0.1633148114        0.0070053781
        0.2333069258        0.0243573187
        0.3032990403        0.0421099610
        0.3732911547        0.0671656881
        0.4432832691        0.1002620617
        0.5132753836        0.1347479045
        0.5832674980        0.1785367273
        0.6532596125        0.2260681561
        0.7232517269        0.2818528282
        0.7932438413        0.3455606686
        0.8632359558        0.4189535491
        0.9332280702        0.5026571054
        1.0032201847        0.5979965236
        1.0732122991        0.7106074017
        1.1432044135        0.8376832672
        1.2131965280        0.9975430907
        1.2831886424        1.1853455886
        1.3531807569        1.4309679836
        1.4231728713        1.8166009170
        1.4931649857        2.1180267248
        1.5631571002        2.4898681298
        1.6331492146        3.1022367545
        1.7031413291        7.1131207057
        1.7731334435       10.2184289119
        1.8431255579       13.6656443152
        1.9131176724        4.5564358697
        1.9831097868        4.7995219583
        2.0531019013        5.2227610832
        2.1230940157        7.3354346648
        2.1930861301        1.4310447464
        2.2630782446        1.1423108291
        2.3330703590        1.0181766564
        2.4030624734        0.9965688227
        2.4730545879        0.9906646594
        2.5430467023        1.0394774253
        2.6130388168        1.0293251498
        2.6830309312        1.0610944639
        2.7530230456        1.2604542279
        2.8230151601        1.2883358255
        2.8930072745        1.4956748695
        2.9629993890        1.9568590294
        3.0329915034        3.3265220564
        3.1029836178        0.0000000000
        3.1729757323        0.0000000000
        3.2429678467        0.0000000000
        3.3129599612        0.0000000000
        3.3829520756        0.0000000000
        3.4529441900        0.0000000000
        3.5229363045        0.0000000000
        3.5929284189        0.0000000000
        3.6629205334        0.0000000000
        3.7329126478        0.0000000000
        3.8029047622        0.0000000000
        3.8728968767        0.0000000000
        3.9428889911        0.0000000000
        4.0128811056        0.0000000000
        4.0828732200        0.0000000000
        4.1528653344        0.0000000000
        4.2228574489        0.0000000000
        4.2928495633        0.0000000000
        4.3628416778        0.0000000000
        4.4328337922        0.0000000000
        4.5028259066        0.0000000000
        4.5728180211        0.0000000000
        4.6428101355        0.0000000000
        4.7128022499        0.0000000000
        4.7827943644        0.0000000000
        4.8527864788        0.0000000000
        4.9227785933        0.0000000000
        4.9927707077        0.0000000000
        5.0627628221        0.0000000000
        5.1327549366        0.0000000000
        5.2027470510        0.0000000000
        5.2727391655        0.0000000000
        5.3427312799        0.0000000000
        5.4127233943        0.0000000000
        5.4827155088        0.0000000000
        5.5527076232        0.6358487850
        5.6226997377        1.0208069085
        5.6926918521        2.2238461150
        5.7626839665        4.8325999670
        5.8326760810        3.4161613548
        5.9026681954        5.2448948701
        5.9726603099        4.3595557926
        6.0426524243        4.3020094409
        6.1126445387        3.8093614702
        6.1826366532        4.3313991961
        6.2526287676        4.0342357972
        6.3226208821        3.6145702497
        6.3926129965        4.4329835231
        6.4626051109        3.8504505506
        6.5325972254        4.2723435684
        6.6025893398        4.9090841018
        6.6725814542        5.3437354609
        6.7425735687        3.5520632014
        6.8125656831        5.6967895477
        6.8825577976        5.0666604599
        6.9525499120        2.6921431461
        7.0225420264        1.9077971931
        7.0925341409        1.9686739608
        7.1625262553        2.0971981651
        7.2325183698        1.9945875012
        7.3025104842        2.5413948380
        7.3725025986        2.1610703534
        7.4424947131        2.5990575830
        7.5124868275        2.4679732467
        7.5824789420        2.4071882822
        7.6524710564        3.0007528213
        7.7224631708        2.6500264949
        7.7924552853        3.4603964363
        7.8624473997        3.9910705995
        7.9324395142        4.2819262725
        8.0024316286        2.6453979439
        8.0724237430        4.1717349902
        8.1424158575        3.9806080135
        8.2124079719        2.9888662440
        8.2824000864        4.0540046501
        8.3523922008        3.9652076073
        8.4223843152        2.3897780199
        8.4923764297        3.0601451767
        8.5623685441        2.4219583559
        8.6323606585        2.5822641531
        8.7023527730        2.3985991630
        8.7723448874        2.3099116682
        8.8423370019        2.2225012499
        8.9123291163        2.1363819671
        8.9823212307        1.9101464043
        9.0523133452        1.9655850206
        9.1223054596        2.4870095075
        9.1922975741        2.7976411784
        9.2622896885        2.4911495804
        9.3322818029        2.5258207668
        9.4022739174        3.3177428702
        9.4722660318        3.0896786305
        9.5422581463        3.9466764757
        9.6122502607        4.3645324440
        9.6822423751        4.5747159603
        9.7522344896        4.0617148655
        9.8222266040        3.8953405862
        9.8922187185        4.2268581664
        9.9622108329        4.6210100438
       10.0322029473        4.5527266105
       10.1021950618        4.1315941891
       10.1721871762        3.8454937003
       10.2421792907        3.6962796206
       10.3121714051        3.5919325543
       10.3821635195        3.4046156409
       10.4521556340        3.0567492220
       10.5221477484        2.8538524796
       10.5921398629        2.6447377732
       10.6621319773        2.2909616081
       10.7321240917        2.0474664442
       10.8021162062        1.7967757565
       10.8721083206        1.5710598801
       10.9421004350        1.3250843944
       11.0120925495        1.1234184577
       11.0820846639        0.8143119109
       11.1520767784        0.6675854397
       11.2220688928        0.5688131834
       11.2920610072        0.4685499531
       11.3620531217        0.3448849645
       11.4320452361        0.2903340070
       11.5020373506        0.2351470811
       11.5720294650        0.1621947805
       11.6420215794        0.0816989005
       11.7120136939        0.0000000000
       11.7820058083        0.0000000000
       11.8519979228        0.0000000000
       11.9219900372        0.0000000000
       11.9919821516        0.0000000000
       12.0619742661        0.0000000000
       12.1319663805        0.0000000000
       12.2019584950        0.0000000000
       12.2719506094        0.0000000000
       12.3419427238        0.0000000000
       12.4119348383        0.0000000000
       12.4819269527        0.0000000000
       12.5519190672        0.0000000000
       12.6219111816        0.0000000000
       12.6919032960        0.0000000000
       12.7618954105        0.0000000000
       12.8318875249        0.0000000000
