# Thermal properties / unit cell (natom)

unit:
  temperature:   K
  free_energy:   kJ/mol
  entropy:       J/K/mol
  heat_capacity: J/K/mol

natom: 12   
cutoff_frequency: 0.00000
num_modes: 103680
num_integrated_modes: 103679

zero_point_energy:      14.2142187

thermal_properties:
- temperature:         0.0000000
  free_energy:        14.2142187
  entropy:             0.0000000
  heat_capacity:       0.0000000
  energy:             14.2142187

- temperature:        10.0000000
  free_energy:        14.2058414
  entropy:             3.4301141
  heat_capacity:      11.6522315
  energy:             14.2401426

- temperature:        20.0000000
  free_energy:        14.0662874
  entropy:            28.8730809
  heat_capacity:      74.8829346
  energy:             14.6437490

- temperature:        30.0000000
  free_energy:        13.5670903
  entropy:            72.6294340
  heat_capacity:     142.7667923
  energy:             15.7459733

- temperature:        40.0000000
  free_energy:        12.6002476
  entropy:           120.7291380
  heat_capacity:     190.5581579
  energy:             17.4294131

- temperature:        50.0000000
  free_energy:        11.1596691
  entropy:           166.8215429
  heat_capacity:     221.4512104
  energy:             19.5007462

- temperature:        60.0000000
  free_energy:         9.2766847
  entropy:           209.1019166
  heat_capacity:     241.5753907
  energy:             21.8227996

- temperature:        70.0000000
  free_energy:         6.9908772
  entropy:           247.4224790
  heat_capacity:     255.1023930
  energy:             24.3104507

- temperature:        80.0000000
  free_energy:         4.3402627
  entropy:           282.1373149
  heat_capacity:     264.5166745
  energy:             26.9112479

- temperature:        90.0000000
  free_energy:         1.3586195
  entropy:           313.7044909
  heat_capacity:     271.2841817
  energy:             29.5920237

- temperature:       100.0000000
  free_energy:        -1.9247912
  entropy:           342.5588664
  heat_capacity:     276.2901776
  energy:             32.3310955

- temperature:       110.0000000
  free_energy:        -5.4847810
  entropy:           369.0781514
  heat_capacity:     280.0863832
  energy:             35.1138157

- temperature:       120.0000000
  free_energy:        -9.2996360
  entropy:           393.5801911
  heat_capacity:     283.0278755
  energy:             37.9299870

- temperature:       130.0000000
  free_energy:       -13.3505481
  entropy:           416.3297336
  heat_capacity:     285.3501738
  energy:             40.7723173

- temperature:       140.0000000
  free_energy:       -17.6211274
  entropy:           437.5471025
  heat_capacity:     287.2138444
  energy:             43.6354669

- temperature:       150.0000000
  free_energy:       -22.0969994
  entropy:           457.4162823
  heat_capacity:     288.7310909
  energy:             46.5154429

- temperature:       160.0000000
  free_energy:       -26.7654767
  entropy:           476.0917516
  heat_capacity:     289.9820755
  energy:             49.4092036

- temperature:       170.0000000
  free_energy:       -31.6152926
  entropy:           493.7040348
  heat_capacity:     291.0252154
  energy:             52.3143933

- temperature:       180.0000000
  free_energy:       -36.6363852
  entropy:           510.3641440
  heat_capacity:     291.9038466
  energy:             55.2291607

- temperature:       190.0000000
  free_energy:       -41.8197198
  entropy:           526.1671128
  heat_capacity:     292.6506371
  energy:             58.1520316

- temperature:       200.0000000
  free_energy:       -47.1571444
  entropy:           541.1948116
  heat_capacity:     293.2905726
  energy:             61.0818179

- temperature:       210.0000000
  free_energy:       -52.6412694
  entropy:           555.5181963
  heat_capacity:     293.8430161
  energy:             64.0175519

- temperature:       220.0000000
  free_energy:       -58.2653677
  entropy:           569.1991145
  heat_capacity:     294.3231538
  energy:             66.9584375

- temperature:       230.0000000
  free_energy:       -64.0232915
  entropy:           582.2917643
  heat_capacity:     294.7430275
  energy:             69.9038143

- temperature:       240.0000000
  free_energy:       -69.9094018
  entropy:           594.8438805
  heat_capacity:     295.1122814
  energy:             72.8531296

- temperature:       250.0000000
  free_energy:       -75.9185086
  entropy:           606.8977039
  heat_capacity:     295.4387111
  energy:             75.8059174

- temperature:       260.0000000
  free_energy:       -82.0458205
  entropy:           618.4907800
  heat_capacity:     295.7286721
  energy:             78.7617823

- temperature:       270.0000000
  free_energy:       -88.2869005
  entropy:           629.6566194
  heat_capacity:     295.9873862
  energy:             81.7203867

- temperature:       280.0000000
  free_energy:       -94.6376292
  entropy:           640.4252484
  heat_capacity:     296.2191756
  energy:             84.6814404

- temperature:       290.0000000
  free_energy:      -101.0941717
  entropy:           650.8236700
  heat_capacity:     296.4276419
  energy:             87.6446926

- temperature:       300.0000000
  free_energy:      -107.6529500
  entropy:           660.8762521
  heat_capacity:     296.6158055
  energy:             90.6099256

- temperature:       310.0000000
  free_energy:      -114.3106177
  entropy:           670.6050557
  heat_capacity:     296.7862141
  energy:             93.5769495

- temperature:       320.0000000
  free_energy:      -121.0640388
  entropy:           680.0301150
  heat_capacity:     296.9410288
  energy:             96.5455979

- temperature:       330.0000000
  free_energy:      -127.9102685
  entropy:           689.1696753
  heat_capacity:     297.0820925
  energy:             99.5157243

- temperature:       340.0000000
  free_energy:      -134.8465364
  entropy:           698.0403989
  heat_capacity:     297.2109837
  energy:            102.4871992

- temperature:       350.0000000
  free_energy:      -141.8702314
  entropy:           706.6575410
  heat_capacity:     297.3290615
  energy:            105.4599080

- temperature:       360.0000000
  free_energy:      -148.9788887
  entropy:           715.0351030
  heat_capacity:     297.4375007
  energy:            108.4337484

- temperature:       370.0000000
  free_energy:      -156.1701779
  entropy:           723.1859653
  heat_capacity:     297.5373208
  energy:            111.4086293

- temperature:       380.0000000
  free_energy:      -163.4418921
  entropy:           731.1220028
  heat_capacity:     297.6294104
  energy:            114.3844690

- temperature:       390.0000000
  free_energy:      -170.7919385
  entropy:           738.8541868
  heat_capacity:     297.7145466
  energy:            117.3611943

- temperature:       400.0000000
  free_energy:      -178.2183302
  entropy:           746.3926732
  heat_capacity:     297.7934113
  energy:            120.3387391

- temperature:       410.0000000
  free_energy:      -185.7191778
  entropy:           753.7468816
  heat_capacity:     297.8666049
  energy:            123.3170436

- temperature:       420.0000000
  free_energy:      -193.2926828
  entropy:           760.9255639
  heat_capacity:     297.9346579
  energy:            126.2960540

- temperature:       430.0000000
  free_energy:      -200.9371312
  entropy:           767.9368661
  heat_capacity:     297.9980400
  energy:            129.2757212

- temperature:       440.0000000
  free_energy:      -208.6508876
  entropy:           774.7883824
  heat_capacity:     298.0571686
  energy:            132.2560007

- temperature:       450.0000000
  free_energy:      -216.4323899
  entropy:           781.4872035
  heat_capacity:     298.1124157
  energy:            135.2368517

- temperature:       460.0000000
  free_energy:      -224.2801448
  entropy:           788.0399608
  heat_capacity:     298.1641134
  energy:            138.2182371

- temperature:       470.0000000
  free_energy:      -232.1927230
  entropy:           794.4528641
  heat_capacity:     298.2125590
  energy:            141.2001231

- temperature:       480.0000000
  free_energy:      -240.1687554
  entropy:           800.7317370
  heat_capacity:     298.2580195
  energy:            144.1824784

- temperature:       490.0000000
  free_energy:      -248.2069292
  entropy:           806.8820481
  heat_capacity:     298.3007349
  energy:            147.1652743

- temperature:       500.0000000
  free_energy:      -256.3059850
  entropy:           812.9089392
  heat_capacity:     298.3409218
  energy:            150.1484846

- temperature:       510.0000000
  free_energy:      -264.4647128
  entropy:           818.8172506
  heat_capacity:     298.3787756
  energy:            153.1320850

- temperature:       520.0000000
  free_energy:      -272.6819499
  entropy:           824.6115441
  heat_capacity:     298.4144734
  energy:            156.1160530

- temperature:       530.0000000
  free_energy:      -280.9565780
  entropy:           830.2961242
  heat_capacity:     298.4481758
  energy:            159.1003678

- temperature:       540.0000000
  free_energy:      -289.2875203
  entropy:           835.8750567
  heat_capacity:     298.4800286
  energy:            162.0850103

- temperature:       550.0000000
  free_energy:      -297.6737398
  entropy:           841.3521863
  heat_capacity:     298.5101646
  energy:            165.0699627

- temperature:       560.0000000
  free_energy:      -306.1142368
  entropy:           846.7311520
  heat_capacity:     298.5387051
  energy:            168.0552083

- temperature:       570.0000000
  free_energy:      -314.6080471
  entropy:           852.0154017
  heat_capacity:     298.5657605
  energy:            171.0407318

- temperature:       580.0000000
  free_energy:      -323.1542401
  entropy:           857.2082051
  heat_capacity:     298.5914321
  energy:            174.0265189

- temperature:       590.0000000
  free_energy:      -331.7519168
  entropy:           862.3126660
  heat_capacity:     298.6158126
  energy:            177.0125562

- temperature:       600.0000000
  free_energy:      -340.4002088
  entropy:           867.3317331
  heat_capacity:     298.6389871
  energy:            179.9988311

- temperature:       610.0000000
  free_energy:      -349.0982762
  entropy:           872.2682103
  heat_capacity:     298.6610338
  energy:            182.9853321

- temperature:       620.0000000
  free_energy:      -357.8453066
  entropy:           877.1247659
  heat_capacity:     298.6820247
  energy:            185.9720483

- temperature:       630.0000000
  free_energy:      -366.6405136
  entropy:           881.9039411
  heat_capacity:     298.7020262
  energy:            188.9589693

- temperature:       640.0000000
  free_energy:      -375.4831355
  entropy:           886.6081582
  heat_capacity:     298.7210993
  energy:            191.9460857

- temperature:       650.0000000
  free_energy:      -384.3724346
  entropy:           891.2397277
  heat_capacity:     298.7393007
  energy:            194.9333884

- temperature:       660.0000000
  free_energy:      -393.3076953
  entropy:           895.8008550
  heat_capacity:     298.7566826
  energy:            197.9208690

- temperature:       670.0000000
  free_energy:      -402.2882239
  entropy:           900.2936469
  heat_capacity:     298.7732935
  energy:            200.9085195

- temperature:       680.0000000
  free_energy:      -411.3133472
  entropy:           904.7201171
  heat_capacity:     298.7891783
  energy:            203.8963325

- temperature:       690.0000000
  free_energy:      -420.3824116
  entropy:           909.0821919
  heat_capacity:     298.8043787
  energy:            206.8843008

- temperature:       700.0000000
  free_energy:      -429.4947825
  entropy:           913.3817148
  heat_capacity:     298.8189335
  energy:            209.8724179

- temperature:       710.0000000
  free_energy:      -438.6498433
  entropy:           917.6204517
  heat_capacity:     298.8328786
  energy:            212.8606774

- temperature:       720.0000000
  free_energy:      -447.8469946
  entropy:           921.8000946
  heat_capacity:     298.8462477
  energy:            215.8490735

- temperature:       730.0000000
  free_energy:      -457.0856536
  entropy:           925.9222660
  heat_capacity:     298.8590720
  energy:            218.8376006

- temperature:       740.0000000
  free_energy:      -466.3652535
  entropy:           929.9885227
  heat_capacity:     298.8713807
  energy:            221.8262532

- temperature:       750.0000000
  free_energy:      -475.6852427
  entropy:           934.0003590
  heat_capacity:     298.8832011
  energy:            224.8150266

- temperature:       760.0000000
  free_energy:      -485.0450841
  entropy:           937.9592103
  heat_capacity:     298.8945587
  energy:            227.8039157

- temperature:       770.0000000
  free_energy:      -494.4442549
  entropy:           941.8664560
  heat_capacity:     298.9054772
  energy:            230.7929163

- temperature:       780.0000000
  free_energy:      -503.8822456
  entropy:           945.7234224
  heat_capacity:     298.9159791
  energy:            233.7820239

- temperature:       790.0000000
  free_energy:      -513.3585600
  entropy:           949.5313854
  heat_capacity:     298.9260853
  energy:            236.7712345

- temperature:       800.0000000
  free_energy:      -522.8727141
  entropy:           953.2915730
  heat_capacity:     298.9358153
  energy:            239.7605443

- temperature:       810.0000000
  free_energy:      -532.4242361
  entropy:           957.0051676
  heat_capacity:     298.9451877
  energy:            242.7499496

- temperature:       820.0000000
  free_energy:      -542.0126659
  entropy:           960.6733084
  heat_capacity:     298.9542197
  energy:            245.7394470

- temperature:       830.0000000
  free_energy:      -551.6375545
  entropy:           964.2970933
  heat_capacity:     298.9629276
  energy:            248.7290330

- temperature:       840.0000000
  free_energy:      -561.2984635
  entropy:           967.8775809
  heat_capacity:     298.9713267
  energy:            251.7187045

- temperature:       850.0000000
  free_energy:      -570.9949652
  entropy:           971.4157925
  heat_capacity:     298.9794315
  energy:            254.7084585

- temperature:       860.0000000
  free_energy:      -580.7266417
  entropy:           974.9127138
  heat_capacity:     298.9872556
  energy:            257.6982922

- temperature:       870.0000000
  free_energy:      -590.4930850
  entropy:           978.3692962
  heat_capacity:     298.9948117
  energy:            260.6882027

- temperature:       880.0000000
  free_energy:      -600.2938962
  entropy:           981.7864588
  heat_capacity:     299.0021119
  energy:            263.6781876

- temperature:       890.0000000
  free_energy:      -610.1286857
  entropy:           985.1650897
  heat_capacity:     299.0091678
  energy:            266.6682442

- temperature:       900.0000000
  free_energy:      -619.9970724
  entropy:           988.5060473
  heat_capacity:     299.0159899
  energy:            269.6583701

- temperature:       910.0000000
  free_energy:      -629.8986839
  entropy:           991.8101616
  heat_capacity:     299.0225887
  energy:            272.6485632

- temperature:       920.0000000
  free_energy:      -639.8331555
  entropy:           995.0782356
  heat_capacity:     299.0289736
  energy:            275.6388212

- temperature:       930.0000000
  free_energy:      -649.8001310
  entropy:           998.3110463
  heat_capacity:     299.0351539
  energy:            278.6291420

- temperature:       940.0000000
  free_energy:      -659.7992614
  entropy:          1001.5093458
  heat_capacity:     299.0411382
  energy:            281.6195236

- temperature:       950.0000000
  free_energy:      -669.8302053
  entropy:          1004.6738626
  heat_capacity:     299.0469347
  energy:            284.6099641

- temperature:       960.0000000
  free_energy:      -679.8926284
  entropy:          1007.8053022
  heat_capacity:     299.0525512
  energy:            287.6004617

- temperature:       970.0000000
  free_energy:      -689.9862034
  entropy:          1010.9043484
  heat_capacity:     299.0579950
  energy:            290.5910146

- temperature:       980.0000000
  free_energy:      -700.1106096
  entropy:          1013.9716640
  heat_capacity:     299.0632731
  energy:            293.5816211

- temperature:       990.0000000
  free_energy:      -710.2655331
  entropy:          1017.0078915
  heat_capacity:     299.0683923
  energy:            296.5722795

- temperature:      1000.0000000
  free_energy:      -720.4506659
  entropy:          1020.0136543
  heat_capacity:     299.0733588
  energy:            299.5629884
