phonopy:
  version: "2.37.1"
  frequency_unit_conversion_factor: 15.633302
  symmetry_tolerance: 1.00000e-05

space_group:
  type: "P6_3/mmc"
  number: 194
  Hall_symbol: "-P 6c 2c"

primitive_matrix:
- [  1.000000000000000,  0.000000000000000, -0.000000000000000 ]
- [  0.000000000000000,  1.000000000000000,  0.000000000000000 ]
- [  0.000000000000000,  0.000000000000000,  1.000000000000000 ]

supercell_matrix:
- [   3,   0,   0 ]
- [   0,   3,   0 ]
- [   0,   0,   2 ]

primitive_cell:
  lattice:
  - [     4.767321912030810,     0.000000000000000,     0.000000000000000 ] # a
  - [    -2.383660948979812,     4.128621760647588,     0.000000000000000 ] # b
  - [     0.000000002529172,     0.000000046370149,     5.797794401121009 ] # c
  points:
  - symbol: Li # 1
    coordinates: [  0.000000000136295,  0.000000000036345,  0.999999999730305 ]
    mass: 6.940000
  - symbol: Li # 2
    coordinates: [  0.000000000200439,  0.999999999870167,  0.500000000025685 ]
    mass: 6.940000
  - symbol: Li # 3
    coordinates: [  0.666666664801932,  0.333333329438842,  0.750000004872377 ]
    mass: 6.940000
  - symbol: Li # 4
    coordinates: [  0.333333335258665,  0.666666670469264,  0.249999995167957 ]
    mass: 6.940000
  - symbol: Sn # 5
    coordinates: [  0.666666664991326,  0.333333330341994,  0.249999997897018 ]
    mass: 118.710000
  - symbol: Sn # 6
    coordinates: [  0.333333334653030,  0.666666669855324,  0.750000002285990 ]
    mass: 118.710000
  reciprocal_lattice: # without 2pi
  - [     0.209761375139447,     0.121105789658430,    -0.000000001060096 ] # a*
  - [     0.000000000000000,     0.242211580031770,    -0.000000001937183 ] # b*
  - [     0.000000000000000,     0.000000000000000,     0.172479382816101 ] # c*

unit_cell:
  lattice:
  - [     4.767321912030810,     0.000000000000000,     0.000000000000000 ] # a
  - [    -2.383660948979812,     4.128621760647588,     0.000000000000000 ] # b
  - [     0.000000002529172,     0.000000046370149,     5.797794401121009 ] # c
  points:
  - symbol: Li # 1
    coordinates: [  0.000000000136295,  0.000000000036345,  0.999999999730305 ]
    mass: 6.940000
    reduced_to: 1
  - symbol: Li # 2
    coordinates: [  0.000000000200439,  0.999999999870167,  0.500000000025685 ]
    mass: 6.940000
    reduced_to: 2
  - symbol: Li # 3
    coordinates: [  0.666666664801932,  0.333333329438842,  0.750000004872377 ]
    mass: 6.940000
    reduced_to: 3
  - symbol: Li # 4
    coordinates: [  0.333333335258665,  0.666666670469264,  0.249999995167957 ]
    mass: 6.940000
    reduced_to: 4
  - symbol: Sn # 5
    coordinates: [  0.666666664991326,  0.333333330341994,  0.249999997897018 ]
    mass: 118.710000
    reduced_to: 5
  - symbol: Sn # 6
    coordinates: [  0.333333334653030,  0.666666669855324,  0.750000002285990 ]
    mass: 118.710000
    reduced_to: 6

supercell:
  lattice:
  - [    14.301965736092431,     0.000000000000000,     0.000000000000000 ] # a
  - [    -7.150982846939435,    12.385865281942765,     0.000000000000000 ] # b
  - [     0.000000005058344,     0.000000092740298,    11.595588802242018 ] # c
  points:
  - symbol: Li # 1
    coordinates: [  0.000000000045432,  0.000000000012115,  0.499999999865152 ]
    mass: 6.940000
    reduced_to: 1
  - symbol: Li # 2
    coordinates: [  0.333333333378765,  0.000000000012115,  0.499999999865152 ]
    mass: 6.940000
    reduced_to: 1
  - symbol: Li # 3
    coordinates: [  0.666666666712098,  0.000000000012115,  0.499999999865152 ]
    mass: 6.940000
    reduced_to: 1
  - symbol: Li # 4
    coordinates: [  0.000000000045432,  0.333333333345448,  0.499999999865152 ]
    mass: 6.940000
    reduced_to: 1
  - symbol: Li # 5
    coordinates: [  0.333333333378765,  0.333333333345448,  0.499999999865152 ]
    mass: 6.940000
    reduced_to: 1
  - symbol: Li # 6
    coordinates: [  0.666666666712098,  0.333333333345448,  0.499999999865152 ]
    mass: 6.940000
    reduced_to: 1
  - symbol: Li # 7
    coordinates: [  0.000000000045432,  0.666666666678782,  0.499999999865152 ]
    mass: 6.940000
    reduced_to: 1
  - symbol: Li # 8
    coordinates: [  0.333333333378765,  0.666666666678782,  0.499999999865152 ]
    mass: 6.940000
    reduced_to: 1
  - symbol: Li # 9
    coordinates: [  0.666666666712098,  0.666666666678782,  0.499999999865152 ]
    mass: 6.940000
    reduced_to: 1
  - symbol: Li # 10
    coordinates: [  0.000000000045432,  0.000000000012115,  0.999999999865152 ]
    mass: 6.940000
    reduced_to: 1
  - symbol: Li # 11
    coordinates: [  0.333333333378765,  0.000000000012115,  0.999999999865152 ]
    mass: 6.940000
    reduced_to: 1
  - symbol: Li # 12
    coordinates: [  0.666666666712098,  0.000000000012115,  0.999999999865152 ]
    mass: 6.940000
    reduced_to: 1
  - symbol: Li # 13
    coordinates: [  0.000000000045432,  0.333333333345448,  0.999999999865152 ]
    mass: 6.940000
    reduced_to: 1
  - symbol: Li # 14
    coordinates: [  0.333333333378765,  0.333333333345448,  0.999999999865152 ]
    mass: 6.940000
    reduced_to: 1
  - symbol: Li # 15
    coordinates: [  0.666666666712098,  0.333333333345448,  0.999999999865152 ]
    mass: 6.940000
    reduced_to: 1
  - symbol: Li # 16
    coordinates: [  0.000000000045432,  0.666666666678782,  0.999999999865152 ]
    mass: 6.940000
    reduced_to: 1
  - symbol: Li # 17
    coordinates: [  0.333333333378765,  0.666666666678782,  0.999999999865152 ]
    mass: 6.940000
    reduced_to: 1
  - symbol: Li # 18
    coordinates: [  0.666666666712098,  0.666666666678782,  0.999999999865152 ]
    mass: 6.940000
    reduced_to: 1
  - symbol: Li # 19
    coordinates: [  0.000000000066813,  0.333333333290056,  0.250000000012843 ]
    mass: 6.940000
    reduced_to: 19
  - symbol: Li # 20
    coordinates: [  0.333333333400146,  0.333333333290056,  0.250000000012843 ]
    mass: 6.940000
    reduced_to: 19
  - symbol: Li # 21
    coordinates: [  0.666666666733480,  0.333333333290056,  0.250000000012843 ]
    mass: 6.940000
    reduced_to: 19
  - symbol: Li # 22
    coordinates: [  0.000000000066813,  0.666666666623389,  0.250000000012843 ]
    mass: 6.940000
    reduced_to: 19
  - symbol: Li # 23
    coordinates: [  0.333333333400146,  0.666666666623389,  0.250000000012843 ]
    mass: 6.940000
    reduced_to: 19
  - symbol: Li # 24
    coordinates: [  0.666666666733480,  0.666666666623389,  0.250000000012843 ]
    mass: 6.940000
    reduced_to: 19
  - symbol: Li # 25
    coordinates: [  0.000000000066813,  0.999999999956722,  0.250000000012843 ]
    mass: 6.940000
    reduced_to: 19
  - symbol: Li # 26
    coordinates: [  0.333333333400146,  0.999999999956722,  0.250000000012843 ]
    mass: 6.940000
    reduced_to: 19
  - symbol: Li # 27
    coordinates: [  0.666666666733480,  0.999999999956722,  0.250000000012843 ]
    mass: 6.940000
    reduced_to: 19
  - symbol: Li # 28
    coordinates: [  0.000000000066813,  0.333333333290056,  0.750000000012843 ]
    mass: 6.940000
    reduced_to: 19
  - symbol: Li # 29
    coordinates: [  0.333333333400146,  0.333333333290056,  0.750000000012843 ]
    mass: 6.940000
    reduced_to: 19
  - symbol: Li # 30
    coordinates: [  0.666666666733480,  0.333333333290056,  0.750000000012843 ]
    mass: 6.940000
    reduced_to: 19
  - symbol: Li # 31
    coordinates: [  0.000000000066813,  0.666666666623389,  0.750000000012843 ]
    mass: 6.940000
    reduced_to: 19
  - symbol: Li # 32
    coordinates: [  0.333333333400146,  0.666666666623389,  0.750000000012843 ]
    mass: 6.940000
    reduced_to: 19
  - symbol: Li # 33
    coordinates: [  0.666666666733480,  0.666666666623389,  0.750000000012843 ]
    mass: 6.940000
    reduced_to: 19
  - symbol: Li # 34
    coordinates: [  0.000000000066813,  0.999999999956722,  0.750000000012843 ]
    mass: 6.940000
    reduced_to: 19
  - symbol: Li # 35
    coordinates: [  0.333333333400146,  0.999999999956722,  0.750000000012843 ]
    mass: 6.940000
    reduced_to: 19
  - symbol: Li # 36
    coordinates: [  0.666666666733480,  0.999999999956722,  0.750000000012843 ]
    mass: 6.940000
    reduced_to: 19
  - symbol: Li # 37
    coordinates: [  0.222222221600644,  0.111111109812947,  0.375000002436188 ]
    mass: 6.940000
    reduced_to: 37
  - symbol: Li # 38
    coordinates: [  0.555555554933977,  0.111111109812947,  0.375000002436188 ]
    mass: 6.940000
    reduced_to: 37
  - symbol: Li # 39
    coordinates: [  0.888888888267311,  0.111111109812947,  0.375000002436188 ]
    mass: 6.940000
    reduced_to: 37
  - symbol: Li # 40
    coordinates: [  0.222222221600644,  0.444444443146281,  0.375000002436188 ]
    mass: 6.940000
    reduced_to: 37
  - symbol: Li # 41
    coordinates: [  0.555555554933977,  0.444444443146281,  0.375000002436188 ]
    mass: 6.940000
    reduced_to: 37
  - symbol: Li # 42
    coordinates: [  0.888888888267311,  0.444444443146281,  0.375000002436188 ]
    mass: 6.940000
    reduced_to: 37
  - symbol: Li # 43
    coordinates: [  0.222222221600644,  0.777777776479614,  0.375000002436188 ]
    mass: 6.940000
    reduced_to: 37
  - symbol: Li # 44
    coordinates: [  0.555555554933977,  0.777777776479614,  0.375000002436188 ]
    mass: 6.940000
    reduced_to: 37
  - symbol: Li # 45
    coordinates: [  0.888888888267311,  0.777777776479614,  0.375000002436188 ]
    mass: 6.940000
    reduced_to: 37
  - symbol: Li # 46
    coordinates: [  0.222222221600644,  0.111111109812947,  0.875000002436188 ]
    mass: 6.940000
    reduced_to: 37
  - symbol: Li # 47
    coordinates: [  0.555555554933977,  0.111111109812947,  0.875000002436188 ]
    mass: 6.940000
    reduced_to: 37
  - symbol: Li # 48
    coordinates: [  0.888888888267311,  0.111111109812947,  0.875000002436188 ]
    mass: 6.940000
    reduced_to: 37
  - symbol: Li # 49
    coordinates: [  0.222222221600644,  0.444444443146281,  0.875000002436188 ]
    mass: 6.940000
    reduced_to: 37
  - symbol: Li # 50
    coordinates: [  0.555555554933977,  0.444444443146281,  0.875000002436188 ]
    mass: 6.940000
    reduced_to: 37
  - symbol: Li # 51
    coordinates: [  0.888888888267311,  0.444444443146281,  0.875000002436188 ]
    mass: 6.940000
    reduced_to: 37
  - symbol: Li # 52
    coordinates: [  0.222222221600644,  0.777777776479614,  0.875000002436188 ]
    mass: 6.940000
    reduced_to: 37
  - symbol: Li # 53
    coordinates: [  0.555555554933977,  0.777777776479614,  0.875000002436188 ]
    mass: 6.940000
    reduced_to: 37
  - symbol: Li # 54
    coordinates: [  0.888888888267311,  0.777777776479614,  0.875000002436188 ]
    mass: 6.940000
    reduced_to: 37
  - symbol: Li # 55
    coordinates: [  0.111111111752888,  0.222222223489755,  0.124999997583979 ]
    mass: 6.940000
    reduced_to: 55
  - symbol: Li # 56
    coordinates: [  0.444444445086222,  0.222222223489755,  0.124999997583979 ]
    mass: 6.940000
    reduced_to: 55
  - symbol: Li # 57
    coordinates: [  0.777777778419555,  0.222222223489755,  0.124999997583979 ]
    mass: 6.940000
    reduced_to: 55
  - symbol: Li # 58
    coordinates: [  0.111111111752888,  0.555555556823088,  0.124999997583979 ]
    mass: 6.940000
    reduced_to: 55
  - symbol: Li # 59
    coordinates: [  0.444444445086222,  0.555555556823088,  0.124999997583979 ]
    mass: 6.940000
    reduced_to: 55
  - symbol: Li # 60
    coordinates: [  0.777777778419555,  0.555555556823088,  0.124999997583979 ]
    mass: 6.940000
    reduced_to: 55
  - symbol: Li # 61
    coordinates: [  0.111111111752888,  0.888888890156421,  0.124999997583979 ]
    mass: 6.940000
    reduced_to: 55
  - symbol: Li # 62
    coordinates: [  0.444444445086222,  0.888888890156421,  0.124999997583979 ]
    mass: 6.940000
    reduced_to: 55
  - symbol: Li # 63
    coordinates: [  0.777777778419555,  0.888888890156421,  0.124999997583979 ]
    mass: 6.940000
    reduced_to: 55
  - symbol: Li # 64
    coordinates: [  0.111111111752888,  0.222222223489755,  0.624999997583979 ]
    mass: 6.940000
    reduced_to: 55
  - symbol: Li # 65
    coordinates: [  0.444444445086222,  0.222222223489755,  0.624999997583979 ]
    mass: 6.940000
    reduced_to: 55
  - symbol: Li # 66
    coordinates: [  0.777777778419555,  0.222222223489755,  0.624999997583979 ]
    mass: 6.940000
    reduced_to: 55
  - symbol: Li # 67
    coordinates: [  0.111111111752888,  0.555555556823088,  0.624999997583979 ]
    mass: 6.940000
    reduced_to: 55
  - symbol: Li # 68
    coordinates: [  0.444444445086222,  0.555555556823088,  0.624999997583979 ]
    mass: 6.940000
    reduced_to: 55
  - symbol: Li # 69
    coordinates: [  0.777777778419555,  0.555555556823088,  0.624999997583979 ]
    mass: 6.940000
    reduced_to: 55
  - symbol: Li # 70
    coordinates: [  0.111111111752888,  0.888888890156421,  0.624999997583979 ]
    mass: 6.940000
    reduced_to: 55
  - symbol: Li # 71
    coordinates: [  0.444444445086222,  0.888888890156421,  0.624999997583979 ]
    mass: 6.940000
    reduced_to: 55
  - symbol: Li # 72
    coordinates: [  0.777777778419555,  0.888888890156421,  0.624999997583979 ]
    mass: 6.940000
    reduced_to: 55
  - symbol: Sn # 73
    coordinates: [  0.222222221663775,  0.111111110113998,  0.124999998948509 ]
    mass: 118.710000
    reduced_to: 73
  - symbol: Sn # 74
    coordinates: [  0.555555554997109,  0.111111110113998,  0.124999998948509 ]
    mass: 118.710000
    reduced_to: 73
  - symbol: Sn # 75
    coordinates: [  0.888888888330442,  0.111111110113998,  0.124999998948509 ]
    mass: 118.710000
    reduced_to: 73
  - symbol: Sn # 76
    coordinates: [  0.222222221663775,  0.444444443447331,  0.124999998948509 ]
    mass: 118.710000
    reduced_to: 73
  - symbol: Sn # 77
    coordinates: [  0.555555554997109,  0.444444443447331,  0.124999998948509 ]
    mass: 118.710000
    reduced_to: 73
  - symbol: Sn # 78
    coordinates: [  0.888888888330442,  0.444444443447331,  0.124999998948509 ]
    mass: 118.710000
    reduced_to: 73
  - symbol: Sn # 79
    coordinates: [  0.222222221663775,  0.777777776780665,  0.124999998948509 ]
    mass: 118.710000
    reduced_to: 73
  - symbol: Sn # 80
    coordinates: [  0.555555554997109,  0.777777776780665,  0.124999998948509 ]
    mass: 118.710000
    reduced_to: 73
  - symbol: Sn # 81
    coordinates: [  0.888888888330442,  0.777777776780665,  0.124999998948509 ]
    mass: 118.710000
    reduced_to: 73
  - symbol: Sn # 82
    coordinates: [  0.222222221663775,  0.111111110113998,  0.624999998948509 ]
    mass: 118.710000
    reduced_to: 73
  - symbol: Sn # 83
    coordinates: [  0.555555554997109,  0.111111110113998,  0.624999998948509 ]
    mass: 118.710000
    reduced_to: 73
  - symbol: Sn # 84
    coordinates: [  0.888888888330442,  0.111111110113998,  0.624999998948509 ]
    mass: 118.710000
    reduced_to: 73
  - symbol: Sn # 85
    coordinates: [  0.222222221663775,  0.444444443447331,  0.624999998948509 ]
    mass: 118.710000
    reduced_to: 73
  - symbol: Sn # 86
    coordinates: [  0.555555554997109,  0.444444443447331,  0.624999998948509 ]
    mass: 118.710000
    reduced_to: 73
  - symbol: Sn # 87
    coordinates: [  0.888888888330442,  0.444444443447331,  0.624999998948509 ]
    mass: 118.710000
    reduced_to: 73
  - symbol: Sn # 88
    coordinates: [  0.222222221663775,  0.777777776780665,  0.624999998948509 ]
    mass: 118.710000
    reduced_to: 73
  - symbol: Sn # 89
    coordinates: [  0.555555554997109,  0.777777776780665,  0.624999998948509 ]
    mass: 118.710000
    reduced_to: 73
  - symbol: Sn # 90
    coordinates: [  0.888888888330442,  0.777777776780665,  0.624999998948509 ]
    mass: 118.710000
    reduced_to: 73
  - symbol: Sn # 91
    coordinates: [  0.111111111551010,  0.222222223285108,  0.375000001142995 ]
    mass: 118.710000
    reduced_to: 91
  - symbol: Sn # 92
    coordinates: [  0.444444444884343,  0.222222223285108,  0.375000001142995 ]
    mass: 118.710000
    reduced_to: 91
  - symbol: Sn # 93
    coordinates: [  0.777777778217676,  0.222222223285108,  0.375000001142995 ]
    mass: 118.710000
    reduced_to: 91
  - symbol: Sn # 94
    coordinates: [  0.111111111551010,  0.555555556618441,  0.375000001142995 ]
    mass: 118.710000
    reduced_to: 91
  - symbol: Sn # 95
    coordinates: [  0.444444444884343,  0.555555556618441,  0.375000001142995 ]
    mass: 118.710000
    reduced_to: 91
  - symbol: Sn # 96
    coordinates: [  0.777777778217676,  0.555555556618441,  0.375000001142995 ]
    mass: 118.710000
    reduced_to: 91
  - symbol: Sn # 97
    coordinates: [  0.111111111551010,  0.888888889951775,  0.375000001142995 ]
    mass: 118.710000
    reduced_to: 91
  - symbol: Sn # 98
    coordinates: [  0.444444444884343,  0.888888889951775,  0.375000001142995 ]
    mass: 118.710000
    reduced_to: 91
  - symbol: Sn # 99
    coordinates: [  0.777777778217676,  0.888888889951775,  0.375000001142995 ]
    mass: 118.710000
    reduced_to: 91
  - symbol: Sn # 100
    coordinates: [  0.111111111551010,  0.222222223285108,  0.875000001142995 ]
    mass: 118.710000
    reduced_to: 91
  - symbol: Sn # 101
    coordinates: [  0.444444444884343,  0.222222223285108,  0.875000001142995 ]
    mass: 118.710000
    reduced_to: 91
  - symbol: Sn # 102
    coordinates: [  0.777777778217676,  0.222222223285108,  0.875000001142995 ]
    mass: 118.710000
    reduced_to: 91
  - symbol: Sn # 103
    coordinates: [  0.111111111551010,  0.555555556618441,  0.875000001142995 ]
    mass: 118.710000
    reduced_to: 91
  - symbol: Sn # 104
    coordinates: [  0.444444444884343,  0.555555556618441,  0.875000001142995 ]
    mass: 118.710000
    reduced_to: 91
  - symbol: Sn # 105
    coordinates: [  0.777777778217676,  0.555555556618441,  0.875000001142995 ]
    mass: 118.710000
    reduced_to: 91
  - symbol: Sn # 106
    coordinates: [  0.111111111551010,  0.888888889951775,  0.875000001142995 ]
    mass: 118.710000
    reduced_to: 91
  - symbol: Sn # 107
    coordinates: [  0.444444444884343,  0.888888889951775,  0.875000001142995 ]
    mass: 118.710000
    reduced_to: 91
  - symbol: Sn # 108
    coordinates: [  0.777777778217676,  0.888888889951775,  0.875000001142995 ]
    mass: 118.710000
    reduced_to: 91

displacements:
- atom:    1
  displacement:
    [   0.0077677168061466,  0.0000000000503693,  0.0062978230857581 ]
  forces:
  - [  -0.0131741054356098, -0.0000012285794355, -0.0128182880580425 ]
  - [   0.0000629654387012,  0.0000163035001606, -0.0000669024884701 ]
  - [   0.0000736648216844,  0.0000154144654516, -0.0000674432376400 ]
  - [  -0.0000053191906773, -0.0000445879995823, -0.0000834148377180 ]
  - [   0.0000210438738577,  0.0000239573419094, -0.0000494103878736 ]
  - [   0.0000056750141084,  0.0000003147870302, -0.0000067744404078 ]
  - [  -0.0000063058687374, -0.0000416180118918, -0.0000839894637465 ]
  - [   0.0000042738120101,  0.0000001993030310, -0.0000064759515226 ]
  - [   0.0000230713485507,  0.0000300407409668, -0.0000497708097100 ]
  - [  -0.0000426485203207, -0.0000001309211228, -0.0002161860466003 ]
  - [  -0.0000022037420422, -0.0000040762797653,  0.0000022724270821 ]
  - [  -0.0000022936146706, -0.0000034930026231,  0.0000018216669559 ]
  - [   0.0000032826792449,  0.0000026791822165,  0.0000060629099607 ]
  - [  -0.0000026173656806,  0.0000002461019903, -0.0000014565885067 ]
  - [   0.0000004996545613, -0.0000001825392246, -0.0000040624290705 ]
  - [   0.0000034547410905,  0.0000031003728509,  0.0000060442835093 ]
  - [  -0.0000003528818411,  0.0000001573935151, -0.0000042458996177 ]
  - [  -0.0000026242341846,  0.0000005122274160, -0.0000015534460545 ]
  - [   0.0001020402414724, -0.0001127811847255,  0.0000919117592275 ]
  - [   0.0001702437875792, -0.0000050783855841, -0.0000730464234948 ]
  - [   0.0000011415686458,  0.0000006500631571,  0.0000058794394135 ]
  - [   0.0000695777707733,  0.0002081218408421,  0.0000513107515872 ]
  - [  -0.0000001356484063,  0.0000000934815034,  0.0000054012052715 ]
  - [   0.0002037554804701, -0.0002047196030617, -0.0000314447097480 ]
  - [  -0.0002773730084300,  0.0000005015172064,  0.0032308688387275 ]
  - [  -0.0000293811899610, -0.0000717375660315, -0.0000325241126120 ]
  - [   0.0000368636101484,  0.0001895065652207,  0.0000503044575453 ]
  - [   0.0000698035000823,  0.0002052639611065,  0.0000502066686749 ]
  - [   0.0002057738020085, -0.0002097183605656, -0.0000332538038492 ]
  - [   0.0000011003576219, -0.0000006542541087,  0.0000050421804190 ]
  - [   0.0001050838036463, -0.0001123971305788,  0.0000928584486246 ]
  - [  -0.0000000555546649, -0.0000000167638063,  0.0000053616240621 ]
  - [   0.0001718542771414, -0.0000038892030716, -0.0000749472528696 ]
  - [  -0.0002960022538900,  0.0000006032641977,  0.0032750293612480 ]
  - [   0.0000396062387154,  0.0001887435792014,  0.0000524828210473 ]
  - [  -0.0000295063946396, -0.0000719237141311, -0.0000314880162477 ]
  - [   0.0007186272414401,  0.0006074304692447, -0.0005456887884066 ]
  - [   0.0000265173039224,  0.0000014706747606, -0.0000007250346243 ]
  - [   0.0018392942147329, -0.0012520807795227,  0.0012052407255396 ]
  - [  -0.0001030564308167,  0.0006052250973880,  0.0000663085374981 ]
  - [   0.0000059134326875,  0.0000111972913146,  0.0000002456363291 ]
  - [   0.0000008774222806, -0.0000139244366437, -0.0000015579862520 ]
  - [  -0.0001764292828739,  0.0000417986884713, -0.0002222919138148 ]
  - [  -0.0012229713611305, -0.0006463965401053,  0.0003525388892740 ]
  - [  -0.0003313212655485,  0.0006609195843339,  0.0003379714908078 ]
  - [   0.0001018740294967,  0.0000891701783985, -0.0000872879754752 ]
  - [   0.0000028265660603,  0.0000027907080948, -0.0000001797452569 ]
  - [   0.0000990846601781, -0.0000871594529599,  0.0002645946806297 ]
  - [   0.0000000493600965, -0.0000099632889032,  0.0000148462131619 ]
  - [   0.0000018384307623, -0.0000002961605787, -0.0000001504085958 ]
  - [  -0.0000050581293181, -0.0000034932745621,  0.0000015373807400 ]
  - [  -0.0000025439076126,  0.0000021844170988,  0.0000315606594086 ]
  - [   0.0000167973339558,  0.0000106147490442, -0.0000019109575078 ]
  - [  -0.0000526742078364, -0.0000033346004784,  0.0000920747406781 ]
  - [  -0.0000513188460900, -0.0000051033812269,  0.0000901520252228 ]
  - [   0.0000159965129569,  0.0000094339820862, -0.0000020749866962 ]
  - [  -0.0000033142878237,  0.0000018243781597,  0.0000311098992825 ]
  - [  -0.0000024100299925, -0.0000031741801649,  0.0000016540288925 ]
  - [   0.0000034628901631, -0.0000016024569049, -0.0000003920868039 ]
  - [   0.0000003449385986, -0.0000107484520413,  0.0000147437676787 ]
  - [   0.0000969222746789, -0.0000848660711199,  0.0002699308097363 ]
  - [   0.0000023832860734,  0.0000039330916479,  0.0000004777684808 ]
  - [   0.0001032099098666,  0.0000907441135496, -0.0000840798020363 ]
  - [  -0.0003340600815136,  0.0006543304771185,  0.0003335634246469 ]
  - [  -0.0012270696461201, -0.0006457655108534,  0.0003530550748110 ]
  - [  -0.0001832401030697,  0.0000462956122647, -0.0002213530242443 ]
  - [   0.0000043503241614, -0.0000133429421112, -0.0000016121193767 ]
  - [   0.0000070087844506,  0.0000101490877569,  0.0000004409812391 ]
  - [  -0.0001048507401720,  0.0006029957439750,  0.0000643115490675 ]
  - [   0.0018871696665883, -0.0012826470192522,  0.0012297364883125 ]
  - [   0.0000264530845016,  0.0000023733009584, -0.0000008121132851 ]
  - [   0.0007239705300890,  0.0006113627459854, -0.0005463324487209 ]
  - [  -0.0000058905152400,  0.0001160717802122,  0.0000157286413014 ]
  - [  -0.0000660604855511,  0.0000103614293039, -0.0000139784533530 ]
  - [   0.0001747334754327, -0.0002199098234996,  0.0002960971323773 ]
  - [   0.0000124822836369, -0.0001023225486279,  0.0000803805887699 ]
  - [   0.0000022943131626, -0.0000403812155128, -0.0000052712857723 ]
  - [  -0.0000174338929355,  0.0000293357297778, -0.0000217147171497 ]
  - [   0.0000100228935480,  0.0000028274953365, -0.0000844870228320 ]
  - [   0.0001872405409813,  0.0001016436144710,  0.0002451725304127 ]
  - [  -0.0002055726945400,  0.0001019481569529,  0.0001556908246130 ]
  - [   0.0034060527104884,  0.0019240858964622,  0.0016906466335058 ]
  - [   0.0000166726240423, -0.0000153006985784,  0.0000138189643621 ]
  - [   0.0018043169984594, -0.0009895571274683, -0.0007142256945372 ]
  - [  -0.0000246663112193, -0.0001409566029906, -0.0000739656388760 ]
  - [  -0.0000030205119401,  0.0000101421028376,  0.0000049490481615 ]
  - [   0.0000213447492570,  0.0000037816353142,  0.0000213664025068 ]
  - [  -0.0001349188387394,  0.0000641336664557,  0.0001254681264982 ]
  - [   0.0001096893101931,  0.0000780830159783, -0.0002706089289859 ]
  - [   0.0000823754817247, -0.0008875746279955,  0.0004627394955605 ]
  - [   0.0000869235955179, -0.0008843070827425,  0.0004661846905947 ]
  - [   0.0001107173739001,  0.0000782590359449, -0.0002717114984989 ]
  - [  -0.0001347035868093,  0.0000633200397715,  0.0001270454376936 ]
  - [   0.0000245323171839,  0.0000042238971218,  0.0000221803784370 ]
  - [  -0.0000021831365302,  0.0000094597926363,  0.0000044368207455 ]
  - [  -0.0000225119292736, -0.0001407879171893, -0.0000726915895939 ]
  - [   0.0018034073291346, -0.0009939291048795, -0.0007283613085747 ]
  - [   0.0000162341166288, -0.0000145902158692,  0.0000134240835905 ]
  - [   0.0032650581561029,  0.0018315583001822,  0.0016131680458784 ]
  - [  -0.0002080905251205,  0.0001012176508084,  0.0001552924513817 ]
  - [   0.0001870783744380,  0.0001010047271848,  0.0002456381917000 ]
  - [   0.0000089944805950,  0.0000016632257029, -0.0000861790031195 ]
  - [  -0.0000144081423059,  0.0000289120944217, -0.0000221580266953 ]
  - [   0.0000032595125958, -0.0000409339554608, -0.0000051837414503 ]
  - [   0.0000143500510603, -0.0001021587522700,  0.0000789873301983 ]
  - [   0.0001743235625327, -0.0002187071368098,  0.0002963058650494 ]
  - [  -0.0000663229729980,  0.0000110985711217, -0.0000131241977215 ]
  - [  -0.0000047674402595,  0.0001178152160719,  0.0000129863619804 ]
- atom:   37
  displacement:
    [   0.0077677168061466,  0.0000000000503693,  0.0062978230857581 ]
  forces:
  - [   0.0005785675020888,  0.0005269454559311, -0.0003701150417328 ]
  - [   0.0020321230404079, -0.0013687651371583,  0.0010514333844185 ]
  - [   0.0000263279071078,  0.0000006837865385, -0.0000009499490261 ]
  - [  -0.0009360513067804,  0.0004811193794012,  0.0007151179015636 ]
  - [  -0.0003355836961418,  0.0008263848721981,  0.0003339517861605 ]
  - [  -0.0004611571785063, -0.0002056676894426, -0.0005750451236963 ]
  - [  -0.0001038726186380, -0.0002724621444941,  0.0000684168189764 ]
  - [   0.0000046130467126, -0.0000124471262097, -0.0000028302893043 ]
  - [   0.0000062834283199,  0.0000121034681797,  0.0000018104910851 ]
  - [  -0.0000441550510004,  0.0000041566254367,  0.0000953860580921 ]
  - [   0.0002400981029496, -0.0001685593888396,  0.0000872910022736 ]
  - [   0.0000018384307623, -0.0000007983152273,  0.0000005811452866 ]
  - [   0.0000210919533856, -0.0000124567886814,  0.0000033043324947 ]
  - [  -0.0000507163349539,  0.0001640282571316,  0.0000909827649593 ]
  - [  -0.0000050825765356, -0.0000039394944906,  0.0000268016010523 ]
  - [   0.0000003216555342,  0.0000157114118338,  0.0000147921964526 ]
  - [   0.0000006057401265, -0.0000005764886737, -0.0000033229589462 ]
  - [  -0.0000003649038263,  0.0000016493722796,  0.0000047963112593 ]
  - [  -0.0004744919715449,  0.0002140715951100, -0.0005847029387951 ]
  - [  -0.0003293227637187, -0.0008252327097580,  0.0003376253880560 ]
  - [  -0.0009314885828644, -0.0004766336642206,  0.0007061045616865 ]
  - [  -0.0001041606301442,  0.0002655941061676,  0.0000622500665486 ]
  - [   0.0000060477514126, -0.0000118241878226,  0.0000015357509255 ]
  - [   0.0000047601920414,  0.0000126557424664, -0.0000029485672712 ]
  - [   0.0019817361608148,  0.0013342723250389,  0.0010260678827763 ]
  - [   0.0005750993150286, -0.0005230588139966, -0.0003643790259957 ]
  - [   0.0000265501439571, -0.0000005346955732, -0.0000002663582563 ]
  - [  -0.0000058203586377,  0.0000030288938433,  0.0000260043889284 ]
  - [  -0.0000523732160218, -0.0001664017327130,  0.0000910903327167 ]
  - [   0.0000221687369049,  0.0000114655122161,  0.0000030724331737 ]
  - [   0.0000003109453246, -0.0000157359754667,  0.0000148126855493 ]
  - [  -0.0000005470601536, -0.0000016951235011,  0.0000045648775995 ]
  - [   0.0000009294599295,  0.0000009145587683, -0.0000034566037357 ]
  - [   0.0002448879531585,  0.0001727994531393,  0.0000866856426001 ]
  - [  -0.0000423575984314, -0.0000056154094636,  0.0000948999077082 ]
  - [   0.0000020486768335,  0.0000011135125533,  0.0000010724179447 ]
  - [  -0.0229760110378265, -0.0001662857830524, -0.0123241711407900 ]
  - [  -0.0003310001920909,  0.0003147857496515, -0.0000976334558800 ]
  - [  -0.0003210107388441, -0.0003257633652538, -0.0000973958522081 ]
  - [   0.0003755367361009,  0.0007203975692391, -0.0000959825702012 ]
  - [   0.0003705457784235, -0.0007287808693945, -0.0000990378903225 ]
  - [  -0.0000169872073457, -0.0000004820176400, -0.0000091205583885 ]
  - [   0.0003744638524950,  0.0000875005498528, -0.0000958882737905 ]
  - [  -0.0000145412050188,  0.0000008959323168, -0.0000090424437076 ]
  - [   0.0003716861829162, -0.0000818260014057, -0.0000983776990324 ]
  - [  -0.0002376482298132, -0.0000001449370757, -0.0033513822127134 ]
  - [   0.0000274202338915, -0.0000123059144244,  0.0000252147438005 ]
  - [   0.0000288121773337,  0.0000098396558315,  0.0000249657314271 ]
  - [  -0.0000009636860341, -0.0000263508409262,  0.0000252206809819 ]
  - [  -0.0000024572946131,  0.0000278931111097,  0.0000256190542132 ]
  - [  -0.0000000888248906, -0.0000002274755388, -0.0000019655562937 ]
  - [  -0.0000013825483620, -0.0000039152801037,  0.0000256252242252 ]
  - [   0.0000016889534891,  0.0000008903443813, -0.0000020923325792 ]
  - [  -0.0000015022233129,  0.0000042240135372,  0.0000253231264651 ]
  - [  -0.0004295530961826,  0.0003123610804323, -0.0007141297683120 ]
  - [   0.0001064921962097, -0.0000057231773098, -0.0000658398494124 ]