# Thermal properties / unit cell (natom)

unit:
  temperature:   K
  free_energy:   kJ/mol
  entropy:       J/K/mol
  heat_capacity: J/K/mol

natom: 6    
cutoff_frequency: 0.00000
num_modes: 176256
num_integrated_modes: 169076

zero_point_energy:      22.7863722

thermal_properties:
- temperature:         0.0000000
  free_energy:        22.7863722
  entropy:             0.0000000
  heat_capacity:       0.0000000
  energy:             22.7863722

- temperature:        10.0000000
  free_energy:        22.7787801
  entropy:             2.4400391
  heat_capacity:       5.4739572
  energy:             22.8031805

- temperature:        20.0000000
  free_energy:        22.7200288
  entropy:             9.8044053
  heat_capacity:      17.0069849
  energy:             22.9161169

- temperature:        30.0000000
  free_energy:        22.5785463
  entropy:            18.5137186
  heat_capacity:      26.0015024
  energy:             23.1339578

- temperature:        40.0000000
  free_energy:        22.3509526
  entropy:            26.9072415
  heat_capacity:      32.3702417
  energy:             23.4272422

- temperature:        50.0000000
  free_energy:        22.0423564
  entropy:            34.7262244
  heat_capacity:      37.8983904
  energy:             23.7786676

- temperature:        60.0000000
  free_energy:        21.6577764
  entropy:            42.1404142
  heat_capacity:      43.6941604
  energy:             24.1862013

- temperature:        70.0000000
  free_energy:        21.2002390
  entropy:            49.3444545
  heat_capacity:      50.0164270
  energy:             24.6543508

- temperature:        80.0000000
  free_energy:        20.6711848
  entropy:            56.4568529
  heat_capacity:      56.6966564
  energy:             25.1877330

- temperature:        90.0000000
  free_energy:        20.0712430
  entropy:            63.5255049
  heat_capacity:      63.4547265
  energy:             25.7885384

- temperature:       100.0000000
  free_energy:        19.4008046
  entropy:            70.5545016
  heat_capacity:      70.0436452
  energy:             26.4562548

- temperature:       110.0000000
  free_energy:        18.6603419
  entropy:            77.5265964
  heat_capacity:      76.2918916
  energy:             27.1882675

- temperature:       120.0000000
  free_energy:        17.8505440
  entropy:            84.4173146
  heat_capacity:      82.1007484
  energy:             27.9806218

- temperature:       130.0000000
  free_energy:        16.9723479
  entropy:            91.2024839
  heat_capacity:      87.4273461
  energy:             28.8286708

- temperature:       140.0000000
  free_energy:        16.0269150
  entropy:            97.8616210
  heat_capacity:      92.2666789
  energy:             29.7275420

- temperature:       150.0000000
  free_energy:        15.0155885
  entropy:           104.3790086
  heat_capacity:      96.6370505
  energy:             30.6724398

- temperature:       160.0000000
  free_energy:        13.9398446
  entropy:           110.7436157
  heat_capacity:     100.5696421
  energy:             31.6588231

- temperature:       170.0000000
  free_energy:        12.8012489
  entropy:           116.9485179
  heat_capacity:     104.1015740
  energy:             32.6824969

- temperature:       180.0000000
  free_energy:        11.6014187
  entropy:           122.9901639
  heat_capacity:     107.2715577
  energy:             33.7396482

- temperature:       190.0000000
  free_energy:        10.3419930
  entropy:           128.8676560
  heat_capacity:     110.1173304
  energy:             34.8268476

- temperature:       200.0000000
  free_energy:         9.0246092
  entropy:           134.5821158
  heat_capacity:     112.6742602
  energy:             35.9410323

- temperature:       210.0000000
  free_energy:         7.6508855
  entropy:           140.1361555
  heat_capacity:     114.9746891
  energy:             37.0794782

- temperature:       220.0000000
  free_energy:         6.2224086
  entropy:           145.5334540
  heat_capacity:     117.0477247
  energy:             38.2397685

- temperature:       230.0000000
  free_energy:         4.7407243
  entropy:           150.7784226
  heat_capacity:     118.9192907
  energy:             39.4197615

- temperature:       240.0000000
  free_energy:         3.2073317
  entropy:           155.8759492
  heat_capacity:     120.6123180
  energy:             40.6175595

- temperature:       250.0000000
  free_energy:         1.6236795
  entropy:           160.8312030
  heat_capacity:     122.1470029
  energy:             41.8314803

- temperature:       260.0000000
  free_energy:        -0.0088358
  entropy:           165.6494882
  heat_capacity:     123.5410878
  energy:             43.0600311

- temperature:       270.0000000
  free_energy:        -1.6888714
  entropy:           170.3361367
  heat_capacity:     124.8101385
  energy:             44.3018855

- temperature:       280.0000000
  free_energy:        -3.4151374
  entropy:           174.8964292
  heat_capacity:     125.9678070
  energy:             45.5558628

- temperature:       290.0000000
  free_energy:        -5.1863961
  entropy:           179.3355397
  heat_capacity:     127.0260696
  energy:             46.8209104

- temperature:       300.0000000
  free_energy:        -7.0014610
  entropy:           183.6584968
  heat_capacity:     127.9954412
  energy:             48.0960880

- temperature:       310.0000000
  free_energy:        -8.8591951
  entropy:           187.8701579
  heat_capacity:     128.8851647
  energy:             49.3805539

- temperature:       320.0000000
  free_energy:       -10.7585088
  entropy:           191.9751932
  heat_capacity:     129.7033757
  energy:             50.6735530

- temperature:       330.0000000
  free_energy:       -12.6983584
  entropy:           195.9780772
  heat_capacity:     130.4572475
  energy:             51.9744070

- temperature:       340.0000000
  free_energy:       -14.6777441
  entropy:           199.8830848
  heat_capacity:     131.1531157
  energy:             53.2825047

- temperature:       350.0000000
  free_energy:       -16.6957075
  entropy:           203.6942921
  heat_capacity:     131.7965863
  energy:             54.5972947

- temperature:       360.0000000
  free_energy:       -18.7513302
  entropy:           207.4155796
  heat_capacity:     132.3926295
  energy:             55.9182784

- temperature:       370.0000000
  free_energy:       -20.8437317
  entropy:           211.0506370
  heat_capacity:     132.9456602
  energy:             57.2450040

- temperature:       380.0000000
  free_energy:       -22.9720672
  entropy:           214.6029701
  heat_capacity:     133.4596077
  energy:             58.5770614

- temperature:       390.0000000
  free_energy:       -25.1355264
  entropy:           218.0759078
  heat_capacity:     133.9379761
  energy:             59.9140776

- temperature:       400.0000000
  free_energy:       -27.3333313
  entropy:           221.4726102
  heat_capacity:     134.3838964
  energy:             61.2557128

- temperature:       410.0000000
  free_energy:       -29.5647345
  entropy:           224.7960763
  heat_capacity:     134.8001718
  energy:             62.6016568

- temperature:       420.0000000
  free_energy:       -31.8290182
  entropy:           228.0491524
  heat_capacity:     135.1893164
  energy:             63.9516258

- temperature:       430.0000000
  free_energy:       -34.1254920
  entropy:           231.2345400
  heat_capacity:     135.5535896
  energy:             65.3053602

- temperature:       440.0000000
  free_energy:       -36.4534919
  entropy:           234.3548033
  heat_capacity:     135.8950255
  energy:             66.6626215

- temperature:       450.0000000
  free_energy:       -38.8123791
  entropy:           237.4123774
  heat_capacity:     136.2154590
  energy:             68.0231907

- temperature:       460.0000000
  free_energy:       -41.2015382
  entropy:           240.4095749
  heat_capacity:     136.5165475
  energy:             69.3868662

- temperature:       470.0000000
  free_energy:       -43.6203767
  entropy:           243.3485934
  heat_capacity:     136.7997915
  energy:             70.7534622

- temperature:       480.0000000
  free_energy:       -46.0683232
  entropy:           246.2315214
  heat_capacity:     137.0665512
  energy:             72.1228071

- temperature:       490.0000000
  free_energy:       -48.5448268
  entropy:           249.0603453
  heat_capacity:     137.3180618
  energy:             73.4947424

- temperature:       500.0000000
  free_energy:       -51.0493560
  entropy:           251.8369546
  heat_capacity:     137.5554468
  energy:             74.8691213

- temperature:       510.0000000
  free_energy:       -53.5813978
  entropy:           254.5631480
  heat_capacity:     137.7797296
  energy:             76.2458077

- temperature:       520.0000000
  free_energy:       -56.1404566
  entropy:           257.2406384
  heat_capacity:     137.9918442
  energy:             77.6246753

- temperature:       530.0000000
  free_energy:       -58.7260537
  entropy:           259.8710576
  heat_capacity:     138.1926437
  energy:             79.0056069

- temperature:       540.0000000
  free_energy:       -61.3377261
  entropy:           262.4559614
  heat_capacity:     138.3829089
  energy:             80.3884931

- temperature:       550.0000000
  free_energy:       -63.9750262
  entropy:           264.9968336
  heat_capacity:     138.5633551
  energy:             81.7732323

- temperature:       560.0000000
  free_energy:       -66.6375207
  entropy:           267.4950899
  heat_capacity:     138.7346388
  energy:             83.1597297

- temperature:       570.0000000
  free_energy:       -69.3247904
  entropy:           269.9520824
  heat_capacity:     138.8973632
  energy:             84.5478966

- temperature:       580.0000000
  free_energy:       -72.0364291
  entropy:           272.3691024
  heat_capacity:     139.0520831
  energy:             85.9376502

- temperature:       590.0000000
  free_energy:       -74.7720433
  entropy:           274.7473841
  heat_capacity:     139.1993096
  energy:             87.3289133

- temperature:       600.0000000
  free_energy:       -77.5312516
  entropy:           277.0881078
  heat_capacity:     139.3395141
  energy:             88.7216130

- temperature:       610.0000000
  free_energy:       -80.3136841
  entropy:           279.3924027
  heat_capacity:     139.4731320
  energy:             90.1156816

- temperature:       620.0000000
  free_energy:       -83.1189819
  entropy:           281.6613499
  heat_capacity:     139.6005655
  energy:             91.5110551

- temperature:       630.0000000
  free_energy:       -85.9467967
  entropy:           283.8959845
  heat_capacity:     139.7221871
  energy:             92.9076735

- temperature:       640.0000000
  free_energy:       -88.7967905
  entropy:           286.0972985
  heat_capacity:     139.8383419
  energy:             94.3054806

- temperature:       650.0000000
  free_energy:       -91.6686348
  entropy:           288.2662431
  heat_capacity:     139.9493500
  energy:             95.7044232

- temperature:       660.0000000
  free_energy:       -94.5620105
  entropy:           290.4037302
  heat_capacity:     140.0555084
  energy:             97.1044514

- temperature:       670.0000000
  free_energy:       -97.4766074
  entropy:           292.5106352
  heat_capacity:     140.1570935
  energy:             98.5055181

- temperature:       680.0000000
  free_energy:      -100.4121241
  entropy:           294.5877985
  heat_capacity:     140.2543621
  energy:             99.9075789

- temperature:       690.0000000
  free_energy:      -103.3682670
  entropy:           296.6360272
  heat_capacity:     140.3475536
  energy:            101.3105918

- temperature:       700.0000000
  free_energy:      -106.3447507
  entropy:           298.6560970
  heat_capacity:     140.4368910
  energy:            102.7145171

- temperature:       710.0000000
  free_energy:      -109.3412975
  entropy:           300.6487535
  heat_capacity:     140.5225826
  energy:            104.1193175

- temperature:       720.0000000
  free_energy:      -112.3576368
  entropy:           302.6147140
  heat_capacity:     140.6048226
  energy:            105.5249573

- temperature:       730.0000000
  free_energy:      -115.3935051
  entropy:           304.5546687
  heat_capacity:     140.6837928
  energy:            106.9314030

- temperature:       740.0000000
  free_energy:      -118.4486457
  entropy:           306.4692818
  heat_capacity:     140.7596631
  energy:            108.3386228

- temperature:       750.0000000
  free_energy:      -121.5228084
  entropy:           308.3591932
  heat_capacity:     140.8325927
  energy:            109.7465865

- temperature:       760.0000000
  free_energy:      -124.6157493
  entropy:           310.2250193
  heat_capacity:     140.9027307
  energy:            111.1552654

- temperature:       770.0000000
  free_energy:      -127.7272305
  entropy:           312.0673542
  heat_capacity:     140.9702168
  energy:            112.5646322

- temperature:       780.0000000
  free_energy:      -130.8570200
  entropy:           313.8867709
  heat_capacity:     141.0351825
  energy:            113.9746613

- temperature:       790.0000000
  free_energy:      -134.0048914
  entropy:           315.6838219
  heat_capacity:     141.0977508
  energy:            115.3853279

- temperature:       800.0000000
  free_energy:      -137.1706237
  entropy:           317.4590405
  heat_capacity:     141.1580378
  energy:            116.7966087

- temperature:       810.0000000
  free_energy:      -140.3540011
  entropy:           319.2129414
  heat_capacity:     141.2161523
  energy:            118.2084814

- temperature:       820.0000000
  free_energy:      -143.5548131
  entropy:           320.9460219
  heat_capacity:     141.2721971
  energy:            119.6209249

- temperature:       830.0000000
  free_energy:      -146.7728538
  entropy:           322.6587621
  heat_capacity:     141.3262686
  energy:            121.0339188

- temperature:       840.0000000
  free_energy:      -150.0079221
  entropy:           324.3516262
  heat_capacity:     141.3784581
  energy:            122.4474440

- temperature:       850.0000000
  free_energy:      -153.2598215
  entropy:           326.0250629
  heat_capacity:     141.4288514
  energy:            123.8614820

- temperature:       860.0000000
  free_energy:      -156.5283600
  entropy:           327.6795062
  heat_capacity:     141.4775296
  energy:            125.2760153

- temperature:       870.0000000
  free_energy:      -159.8133498
  entropy:           329.3153757
  heat_capacity:     141.5245694
  energy:            126.6910271

- temperature:       880.0000000
  free_energy:      -163.1146070
  entropy:           330.9330778
  heat_capacity:     141.5700431
  energy:            128.1065014

- temperature:       890.0000000
  free_energy:      -166.4319521
  entropy:           332.5330056
  heat_capacity:     141.6140191
  energy:            129.5224230

- temperature:       900.0000000
  free_energy:      -169.7652091
  entropy:           334.1155402
  heat_capacity:     141.6565623
  energy:            130.9387770

- temperature:       910.0000000
  free_energy:      -173.1142061
  entropy:           335.6810503
  heat_capacity:     141.6977339
  energy:            132.3555496

- temperature:       920.0000000
  free_energy:      -176.4787746
  entropy:           337.2298934
  heat_capacity:     141.7375921
  energy:            133.7727273

- temperature:       930.0000000
  free_energy:      -179.8587496
  entropy:           338.7624160
  heat_capacity:     141.7761919
  energy:            135.1902973

- temperature:       940.0000000
  free_energy:      -183.2539696
  entropy:           340.2789540
  heat_capacity:     141.8135855
  energy:            136.6082472

- temperature:       950.0000000
  free_energy:      -186.6642765
  entropy:           341.7798333
  heat_capacity:     141.8498224
  energy:            138.0265651

- temperature:       960.0000000
  free_energy:      -190.0895151
  entropy:           343.2653698
  heat_capacity:     141.8849497
  energy:            139.4452399

- temperature:       970.0000000
  free_energy:      -193.5295337
  entropy:           344.7358704
  heat_capacity:     141.9190121
  energy:            140.8642606

- temperature:       980.0000000
  free_energy:      -196.9841834
  entropy:           346.1916328
  heat_capacity:     141.9520520
  energy:            142.2836167

- temperature:       990.0000000
  free_energy:      -200.4533182
  entropy:           347.6329460
  heat_capacity:     141.9841098
  energy:            143.7032983

- temperature:      1000.0000000
  free_energy:      -203.9367951
  entropy:           349.0600909
  heat_capacity:     142.0152239
  energy:            145.1232958
