phonopy:
  version: "2.37.1"
  frequency_unit_conversion_factor: 15.633302
  symmetry_tolerance: 1.00000e-05

space_group:
  type: "P1"
  number: 1
  Hall_symbol: "P 1"

primitive_matrix:
- [  1.000000000000000,  0.000000000000000, -0.000000000000000 ]
- [  0.000000000000000, -1.000000000000000, -1.000000000000000 ]
- [  0.000000000000000,  0.000000000000000, -1.000000000000000 ]

supercell_matrix:
- [   3,   0,   0 ]
- [   0,   2,   0 ]
- [   0,   0,   2 ]

primitive_cell:
  lattice:
  - [     4.397204017394946,     0.000000000000000,     0.000000000000000 ] # a
  - [     2.197026008251485,    -4.774864812345645,     0.000000000000000 ] # b
  - [     2.196925851288079,    -1.531334744686961,    -8.605403419646009 ] # c
  points:
  - symbol: Li # 1
    coordinates: [  0.871981372495201,  0.674178864173193,  0.884642017724850 ]
    mass: 6.940000
  - symbol: Li # 2
    coordinates: [  0.224746034351843,  0.418147460013497,  0.434320904401336 ]
    mass: 6.940000
  - symbol: Li # 3
    coordinates: [  0.549390708361866,  0.546718247546391,  0.658907250081572 ]
    mass: 6.940000
  - symbol: Li # 4
    coordinates: [  0.195740635694586,  0.804032967864348,  0.109116831534817 ]
    mass: 6.940000
  - symbol: Ga # 5
    coordinates: [  0.860222934964927,  0.362281631339615,  0.221174695448613 ]
    mass: 69.723000
  - symbol: Ga # 6
    coordinates: [  0.560890638435413,  0.859011359248503,  0.322405347093563 ]
    mass: 69.723000
  - symbol: Sn # 7
    coordinates: [  0.898305174601369,  0.975088849408957,  0.531251392619226 ]
    mass: 118.710000
  - symbol: Sn # 8
    coordinates: [  0.522213586052732,  0.246570030581997,  0.012396848348195 ]
    mass: 118.710000
  - symbol: Sn # 9
    coordinates: [  0.210433374812773,  0.110406314027019,  0.771891660814422 ]
    mass: 118.710000
  reciprocal_lattice: # without 2pi
  - [     0.227417239692334,     0.104639944786912,     0.039438015073127 ] # a*
  - [     0.000000000000000,    -0.209430013058056,     0.037268148852136 ] # b*
  - [     0.000000000000000,    -0.000000000000000,    -0.116206056966140 ] # c*

unit_cell:
  lattice:
  - [     4.397204017394946,     0.000000000000000,     0.000000000000000 ] # a
  - [    -2.197026008251485,     4.774864812345645,     0.000000000000000 ] # b
  - [     0.000100156963406,    -3.243530067658684,     8.605403419646009 ] # c
  points:
  - symbol: Li # 1
    coordinates: [  0.871981372495201,  0.441179118101956,  0.115357982275150 ]
    mass: 6.940000
    reduced_to: 1
  - symbol: Li # 2
    coordinates: [  0.224746034351843,  0.147531635585167,  0.565679095598664 ]
    mass: 6.940000
    reduced_to: 2
  - symbol: Li # 3
    coordinates: [  0.549390708361866,  0.794374502372037,  0.341092749918428 ]
    mass: 6.940000
    reduced_to: 3
  - symbol: Li # 4
    coordinates: [  0.195740635694586,  0.086850200600835,  0.890883168465183 ]
    mass: 6.940000
    reduced_to: 4
  - symbol: Ga # 5
    coordinates: [  0.860222934964927,  0.416543673211773,  0.778825304551387 ]
    mass: 69.723000
    reduced_to: 5
  - symbol: Ga # 6
    coordinates: [  0.560890638435414,  0.818583293657934,  0.677594652906437 ]
    mass: 69.723000
    reduced_to: 6
  - symbol: Sn # 7
    coordinates: [  0.898305174601369,  0.493659757971816,  0.468748607380774 ]
    mass: 118.710000
    reduced_to: 7
  - symbol: Sn # 8
    coordinates: [  0.522213586052732,  0.741033121069808,  0.987603151651805 ]
    mass: 118.710000
    reduced_to: 8
  - symbol: Sn # 9
    coordinates: [  0.210433374812773,  0.117702025158560,  0.228108339185578 ]
    mass: 118.710000
    reduced_to: 9

supercell:
  lattice:
  - [    13.191612052184839,     0.000000000000000,     0.000000000000000 ] # a
  - [    -4.394052016502971,     9.549729624691290,     0.000000000000000 ] # b
  - [     0.000200313926811,    -6.487060135317368,    17.210806839292019 ] # c
  points:
  - symbol: Li # 1
    coordinates: [  0.290660457498400,  0.220589559050978,  0.057678991137575 ]
    mass: 6.940000
    reduced_to: 1
  - symbol: Li # 2
    coordinates: [  0.623993790831734,  0.220589559050978,  0.057678991137575 ]
    mass: 6.940000
    reduced_to: 1
  - symbol: Li # 3
    coordinates: [  0.957327124165067,  0.220589559050978,  0.057678991137575 ]
    mass: 6.940000
    reduced_to: 1
  - symbol: Li # 4
    coordinates: [  0.290660457498400,  0.720589559050978,  0.057678991137575 ]
    mass: 6.940000
    reduced_to: 1
  - symbol: Li # 5
    coordinates: [  0.623993790831734,  0.720589559050978,  0.057678991137575 ]
    mass: 6.940000
    reduced_to: 1
  - symbol: Li # 6
    coordinates: [  0.957327124165067,  0.720589559050978,  0.057678991137575 ]
    mass: 6.940000
    reduced_to: 1
  - symbol: Li # 7
    coordinates: [  0.290660457498400,  0.220589559050978,  0.557678991137575 ]
    mass: 6.940000
    reduced_to: 1
  - symbol: Li # 8
    coordinates: [  0.623993790831734,  0.220589559050978,  0.557678991137575 ]
    mass: 6.940000
    reduced_to: 1
  - symbol: Li # 9
    coordinates: [  0.957327124165067,  0.220589559050978,  0.557678991137575 ]
    mass: 6.940000
    reduced_to: 1
  - symbol: Li # 10
    coordinates: [  0.290660457498400,  0.720589559050978,  0.557678991137575 ]
    mass: 6.940000
    reduced_to: 1
  - symbol: Li # 11
    coordinates: [  0.623993790831734,  0.720589559050978,  0.557678991137575 ]
    mass: 6.940000
    reduced_to: 1
  - symbol: Li # 12
    coordinates: [  0.957327124165067,  0.720589559050978,  0.557678991137575 ]
    mass: 6.940000
    reduced_to: 1
  - symbol: Li # 13
    coordinates: [  0.074915344783948,  0.073765817792584,  0.282839547799332 ]
    mass: 6.940000
    reduced_to: 13
  - symbol: Li # 14
    coordinates: [  0.408248678117281,  0.073765817792584,  0.282839547799332 ]
    mass: 6.940000
    reduced_to: 13
  - symbol: Li # 15
    coordinates: [  0.741582011450615,  0.073765817792584,  0.282839547799332 ]
    mass: 6.940000
    reduced_to: 13
  - symbol: Li # 16
    coordinates: [  0.074915344783948,  0.573765817792584,  0.282839547799332 ]
    mass: 6.940000
    reduced_to: 13
  - symbol: Li # 17
    coordinates: [  0.408248678117281,  0.573765817792584,  0.282839547799332 ]
    mass: 6.940000
    reduced_to: 13
  - symbol: Li # 18
    coordinates: [  0.741582011450615,  0.573765817792584,  0.282839547799332 ]
    mass: 6.940000
    reduced_to: 13
  - symbol: Li # 19
    coordinates: [  0.074915344783948,  0.073765817792584,  0.782839547799332 ]
    mass: 6.940000
    reduced_to: 13
  - symbol: Li # 20
    coordinates: [  0.408248678117281,  0.073765817792584,  0.782839547799332 ]
    mass: 6.940000
    reduced_to: 13
  - symbol: Li # 21
    coordinates: [  0.741582011450615,  0.073765817792584,  0.782839547799332 ]
    mass: 6.940000
    reduced_to: 13
  - symbol: Li # 22
    coordinates: [  0.074915344783948,  0.573765817792584,  0.782839547799332 ]
    mass: 6.940000
    reduced_to: 13
  - symbol: Li # 23
    coordinates: [  0.408248678117281,  0.573765817792584,  0.782839547799332 ]
    mass: 6.940000
    reduced_to: 13
  - symbol: Li # 24
    coordinates: [  0.741582011450615,  0.573765817792584,  0.782839547799332 ]
    mass: 6.940000
    reduced_to: 13
  - symbol: Li # 25
    coordinates: [  0.183130236120622,  0.397187251186018,  0.170546374959214 ]
    mass: 6.940000
    reduced_to: 25
  - symbol: Li # 26
    coordinates: [  0.516463569453955,  0.397187251186018,  0.170546374959214 ]
    mass: 6.940000
    reduced_to: 25
  - symbol: Li # 27
    coordinates: [  0.849796902787288,  0.397187251186018,  0.170546374959214 ]
    mass: 6.940000
    reduced_to: 25
  - symbol: Li # 28
    coordinates: [  0.183130236120622,  0.897187251186018,  0.170546374959214 ]
    mass: 6.940000
    reduced_to: 25
  - symbol: Li # 29
    coordinates: [  0.516463569453955,  0.897187251186018,  0.170546374959214 ]
    mass: 6.940000
    reduced_to: 25
  - symbol: Li # 30
    coordinates: [  0.849796902787288,  0.897187251186018,  0.170546374959214 ]
    mass: 6.940000
    reduced_to: 25
  - symbol: Li # 31
    coordinates: [  0.183130236120622,  0.397187251186018,  0.670546374959214 ]
    mass: 6.940000
    reduced_to: 25
  - symbol: Li # 32
    coordinates: [  0.516463569453955,  0.397187251186018,  0.670546374959214 ]
    mass: 6.940000
    reduced_to: 25
  - symbol: Li # 33
    coordinates: [  0.849796902787288,  0.397187251186018,  0.670546374959214 ]
    mass: 6.940000
    reduced_to: 25
  - symbol: Li # 34
    coordinates: [  0.183130236120622,  0.897187251186018,  0.670546374959214 ]
    mass: 6.940000
    reduced_to: 25
  - symbol: Li # 35
    coordinates: [  0.516463569453955,  0.897187251186018,  0.670546374959214 ]
    mass: 6.940000
    reduced_to: 25
  - symbol: Li # 36
    coordinates: [  0.849796902787288,  0.897187251186018,  0.670546374959214 ]
    mass: 6.940000
    reduced_to: 25
  - symbol: Li # 37
    coordinates: [  0.065246878564862,  0.043425100300418,  0.445441584232592 ]
    mass: 6.940000
    reduced_to: 37
  - symbol: Li # 38
    coordinates: [  0.398580211898195,  0.043425100300418,  0.445441584232592 ]
    mass: 6.940000
    reduced_to: 37
  - symbol: Li # 39
    coordinates: [  0.731913545231529,  0.043425100300418,  0.445441584232592 ]
    mass: 6.940000
    reduced_to: 37
  - symbol: Li # 40
    coordinates: [  0.065246878564862,  0.543425100300418,  0.445441584232592 ]
    mass: 6.940000
    reduced_to: 37
  - symbol: Li # 41
    coordinates: [  0.398580211898195,  0.543425100300418,  0.445441584232592 ]
    mass: 6.940000
    reduced_to: 37
  - symbol: Li # 42
    coordinates: [  0.731913545231529,  0.543425100300418,  0.445441584232592 ]
    mass: 6.940000
    reduced_to: 37
  - symbol: Li # 43
    coordinates: [  0.065246878564862,  0.043425100300418,  0.945441584232592 ]
    mass: 6.940000
    reduced_to: 37
  - symbol: Li # 44
    coordinates: [  0.398580211898195,  0.043425100300418,  0.945441584232592 ]
    mass: 6.940000
    reduced_to: 37
  - symbol: Li # 45
    coordinates: [  0.731913545231529,  0.043425100300418,  0.945441584232592 ]
    mass: 6.940000
    reduced_to: 37
  - symbol: Li # 46
    coordinates: [  0.065246878564862,  0.543425100300418,  0.945441584232592 ]
    mass: 6.940000
    reduced_to: 37
  - symbol: Li # 47
    coordinates: [  0.398580211898195,  0.543425100300418,  0.945441584232592 ]
    mass: 6.940000
    reduced_to: 37
  - symbol: Li # 48
    coordinates: [  0.731913545231529,  0.543425100300418,  0.945441584232592 ]
    mass: 6.940000
    reduced_to: 37
  - symbol: Ga # 49
    coordinates: [  0.286740978321642,  0.208271836605886,  0.389412652275694 ]
    mass: 69.723000
    reduced_to: 49
  - symbol: Ga # 50
    coordinates: [  0.620074311654976,  0.208271836605886,  0.389412652275694 ]
    mass: 69.723000
    reduced_to: 49
  - symbol: Ga # 51
    coordinates: [  0.953407644988309,  0.208271836605886,  0.389412652275694 ]
    mass: 69.723000
    reduced_to: 49
  - symbol: Ga # 52
    coordinates: [  0.286740978321642,  0.708271836605886,  0.389412652275694 ]
    mass: 69.723000
    reduced_to: 49
  - symbol: Ga # 53
    coordinates: [  0.620074311654976,  0.708271836605886,  0.389412652275694 ]
    mass: 69.723000
    reduced_to: 49
  - symbol: Ga # 54
    coordinates: [  0.953407644988309,  0.708271836605886,  0.389412652275694 ]
    mass: 69.723000
    reduced_to: 49
  - symbol: Ga # 55
    coordinates: [  0.286740978321642,  0.208271836605886,  0.889412652275694 ]
    mass: 69.723000
    reduced_to: 49
  - symbol: Ga # 56
    coordinates: [  0.620074311654976,  0.208271836605886,  0.889412652275694 ]
    mass: 69.723000
    reduced_to: 49
  - symbol: Ga # 57
    coordinates: [  0.953407644988309,  0.208271836605886,  0.889412652275694 ]
    mass: 69.723000
    reduced_to: 49
  - symbol: Ga # 58
    coordinates: [  0.286740978321642,  0.708271836605886,  0.889412652275694 ]
    mass: 69.723000
    reduced_to: 49
  - symbol: Ga # 59
    coordinates: [  0.620074311654976,  0.708271836605886,  0.889412652275694 ]
    mass: 69.723000
    reduced_to: 49
  - symbol: Ga # 60
    coordinates: [  0.953407644988309,  0.708271836605886,  0.889412652275694 ]
    mass: 69.723000
    reduced_to: 49
  - symbol: Ga # 61
    coordinates: [  0.186963546145138,  0.409291646828967,  0.338797326453219 ]
    mass: 69.723000
    reduced_to: 61
  - symbol: Ga # 62
    coordinates: [  0.520296879478471,  0.409291646828967,  0.338797326453219 ]
    mass: 69.723000
    reduced_to: 61
  - symbol: Ga # 63
    coordinates: [  0.853630212811805,  0.409291646828967,  0.338797326453219 ]
    mass: 69.723000
    reduced_to: 61
  - symbol: Ga # 64
    coordinates: [  0.186963546145138,  0.909291646828967,  0.338797326453219 ]
    mass: 69.723000
    reduced_to: 61
  - symbol: Ga # 65
    coordinates: [  0.520296879478471,  0.909291646828967,  0.338797326453219 ]
    mass: 69.723000
    reduced_to: 61
  - symbol: Ga # 66
    coordinates: [  0.853630212811805,  0.909291646828967,  0.338797326453219 ]
    mass: 69.723000
    reduced_to: 61
  - symbol: Ga # 67
    coordinates: [  0.186963546145138,  0.409291646828967,  0.838797326453219 ]
    mass: 69.723000
    reduced_to: 61
  - symbol: Ga # 68
    coordinates: [  0.520296879478471,  0.409291646828967,  0.838797326453219 ]
    mass: 69.723000
    reduced_to: 61
  - symbol: Ga # 69
    coordinates: [  0.853630212811805,  0.409291646828967,  0.838797326453219 ]
    mass: 69.723000
    reduced_to: 61
  - symbol: Ga # 70
    coordinates: [  0.186963546145138,  0.909291646828967,  0.838797326453219 ]
    mass: 69.723000
    reduced_to: 61
  - symbol: Ga # 71
    coordinates: [  0.520296879478471,  0.909291646828967,  0.838797326453219 ]
    mass: 69.723000
    reduced_to: 61
  - symbol: Ga # 72
    coordinates: [  0.853630212811805,  0.909291646828967,  0.838797326453219 ]
    mass: 69.723000
    reduced_to: 61
  - symbol: Sn # 73
    coordinates: [  0.299435058200456,  0.246829878985908,  0.234374303690387 ]
    mass: 118.710000
    reduced_to: 73
  - symbol: Sn # 74
    coordinates: [  0.632768391533790,  0.246829878985908,  0.234374303690387 ]
    mass: 118.710000
    reduced_to: 73
  - symbol: Sn # 75
    coordinates: [  0.966101724867123,  0.246829878985908,  0.234374303690387 ]
    mass: 118.710000
    reduced_to: 73
  - symbol: Sn # 76
    coordinates: [  0.299435058200456,  0.746829878985908,  0.234374303690387 ]
    mass: 118.710000
    reduced_to: 73
  - symbol: Sn # 77
    coordinates: [  0.632768391533790,  0.746829878985908,  0.234374303690387 ]
    mass: 118.710000
    reduced_to: 73
  - symbol: Sn # 78
    coordinates: [  0.966101724867123,  0.746829878985908,  0.234374303690387 ]
    mass: 118.710000
    reduced_to: 73
  - symbol: Sn # 79
    coordinates: [  0.299435058200456,  0.246829878985908,  0.734374303690387 ]
    mass: 118.710000
    reduced_to: 73
  - symbol: Sn # 80
    coordinates: [  0.632768391533790,  0.246829878985908,  0.734374303690387 ]
    mass: 118.710000
    reduced_to: 73
  - symbol: Sn # 81
    coordinates: [  0.966101724867123,  0.246829878985908,  0.734374303690387 ]
    mass: 118.710000
    reduced_to: 73
  - symbol: Sn # 82
    coordinates: [  0.299435058200456,  0.746829878985908,  0.734374303690387 ]
    mass: 118.710000
    reduced_to: 73
  - symbol: Sn # 83
    coordinates: [  0.632768391533790,  0.746829878985908,  0.734374303690387 ]
    mass: 118.710000
    reduced_to: 73
  - symbol: Sn # 84
    coordinates: [  0.966101724867123,  0.746829878985908,  0.734374303690387 ]
    mass: 118.710000
    reduced_to: 73
  - symbol: Sn # 85
    coordinates: [  0.174071195350911,  0.370516560534904,  0.493801575825903 ]
    mass: 118.710000
    reduced_to: 85
  - symbol: Sn # 86
    coordinates: [  0.507404528684244,  0.370516560534904,  0.493801575825903 ]
    mass: 118.710000
    reduced_to: 85
  - symbol: Sn # 87
    coordinates: [  0.840737862017577,  0.370516560534904,  0.493801575825903 ]
    mass: 118.710000
    reduced_to: 85
  - symbol: Sn # 88
    coordinates: [  0.174071195350911,  0.870516560534904,  0.493801575825903 ]
    mass: 118.710000
    reduced_to: 85
  - symbol: Sn # 89
    coordinates: [  0.507404528684244,  0.870516560534904,  0.493801575825903 ]
    mass: 118.710000
    reduced_to: 85
  - symbol: Sn # 90
    coordinates: [  0.840737862017577,  0.870516560534904,  0.493801575825903 ]
    mass: 118.710000
    reduced_to: 85
  - symbol: Sn # 91
    coordinates: [  0.174071195350911,  0.370516560534904,  0.993801575825903 ]
    mass: 118.710000
    reduced_to: 85
  - symbol: Sn # 92
    coordinates: [  0.507404528684244,  0.370516560534904,  0.993801575825903 ]
    mass: 118.710000
    reduced_to: 85
  - symbol: Sn # 93
    coordinates: [  0.840737862017577,  0.370516560534904,  0.993801575825903 ]
    mass: 118.710000
    reduced_to: 85
  - symbol: Sn # 94
    coordinates: [  0.174071195350911,  0.870516560534904,  0.993801575825903 ]
    mass: 118.710000
    reduced_to: 85
  - symbol: Sn # 95
    coordinates: [  0.507404528684244,  0.870516560534904,  0.993801575825903 ]
    mass: 118.710000
    reduced_to: 85
  - symbol: Sn # 96
    coordinates: [  0.840737862017577,  0.870516560534904,  0.993801575825903 ]
    mass: 118.710000
    reduced_to: 85
  - symbol: Sn # 97
    coordinates: [  0.070144458270924,  0.058851012579280,  0.114054169592789 ]
    mass: 118.710000
    reduced_to: 97
  - symbol: Sn # 98
    coordinates: [  0.403477791604258,  0.058851012579280,  0.114054169592789 ]
    mass: 118.710000
    reduced_to: 97
  - symbol: Sn # 99
    coordinates: [  0.736811124937591,  0.058851012579280,  0.114054169592789 ]
    mass: 118.710000
    reduced_to: 97
  - symbol: Sn # 100
    coordinates: [  0.070144458270924,  0.558851012579280,  0.114054169592789 ]
    mass: 118.710000
    reduced_to: 97
  - symbol: Sn # 101
    coordinates: [  0.403477791604258,  0.558851012579280,  0.114054169592789 ]
    mass: 118.710000
    reduced_to: 97
  - symbol: Sn # 102
    coordinates: [  0.736811124937591,  0.558851012579280,  0.114054169592789 ]
    mass: 118.710000
    reduced_to: 97
  - symbol: Sn # 103
    coordinates: [  0.070144458270924,  0.058851012579280,  0.614054169592789 ]
    mass: 118.710000
    reduced_to: 97
  - symbol: Sn # 104
    coordinates: [  0.403477791604258,  0.058851012579280,  0.614054169592789 ]
    mass: 118.710000
    reduced_to: 97
  - symbol: Sn # 105
    coordinates: [  0.736811124937591,  0.058851012579280,  0.614054169592789 ]
    mass: 118.710000
    reduced_to: 97
  - symbol: Sn # 106
    coordinates: [  0.070144458270924,  0.558851012579280,  0.614054169592789 ]
    mass: 118.710000
    reduced_to: 97
  - symbol: Sn # 107
    coordinates: [  0.403477791604258,  0.558851012579280,  0.614054169592789 ]
    mass: 118.710000
    reduced_to: 97
  - symbol: Sn # 108
    coordinates: [  0.736811124937591,  0.558851012579280,  0.614054169592789 ]
    mass: 118.710000
    reduced_to: 97

displacements:
- atom:    1
  displacement:
    [   0.0100000000000000,  0.0000000000000000,  0.0000000000000000 ]
  forces:
  - [  -0.0126022920012474, -0.0150238890200853,  0.0415922701358795 ]
  - [   0.0025297119282186, -0.0151308607310057,  0.0416828840970993 ]
  - [   0.0025287205353379, -0.0149985942989588,  0.0415086559951305 ]
  - [   0.0023790095001459, -0.0148732764646411,  0.0416580811142921 ]
  - [   0.0023390650749207, -0.0150942699983716,  0.0415844209492207 ]
  - [   0.0023389495909214, -0.0152255557477474,  0.0415508374571800 ]
  - [   0.0022763530723751, -0.0150619111955166,  0.0415964722633362 ]
  - [   0.0022718347609043, -0.0150646902620792,  0.0415989272296429 ]
  - [   0.0022727439645678, -0.0150638539344072,  0.0415952131152153 ]
  - [   0.0022744834423065, -0.0150641081854701,  0.0415920466184616 ]
  - [   0.0022729905322194, -0.0150615209713578,  0.0416006371378899 ]
  - [   0.0022729746997356, -0.0150633547455072,  0.0415967628359795 ]
  - [   0.0044980016537011, -0.0630459636449814, -0.0500203035771847 ]
  - [   0.0044961357489228, -0.0628900900483131, -0.0503666177392006 ]
  - [   0.0045212204568088, -0.0629588216543198, -0.0501821935176849 ]
  - [   0.0043935207650065, -0.0629404485225677, -0.0501292347908020 ]
  - [   0.0045935581438243, -0.0629653856158257, -0.0501907244324684 ]
  - [   0.0043981797061861, -0.0629875436425209, -0.0502473935484886 ]
  - [   0.0044743344187737, -0.0629707425832748, -0.0500748939812183 ]
  - [   0.0044759996235371, -0.0629564076662064, -0.0503000132739544 ]
  - [   0.0044946940615773, -0.0629625916481018, -0.0501881316304207 ]
  - [   0.0044847996905446, -0.0629571080207825, -0.0501876808702946 ]
  - [   0.0044971983879805, -0.0629566684365273, -0.0501821637153625 ]
  - [   0.0044809230603278, -0.0629786401987076, -0.0501926727592945 ]
  - [  -0.0037749586626887,  0.0118419928476214, -0.0433505661785603 ]
  - [  -0.0037801163271070,  0.0129601452499628, -0.0417295545339584 ]
  - [  -0.0047591459006071,  0.0124018462374806, -0.0425402559340000 ]
  - [  -0.0050796912983060,  0.0124308811500669, -0.0425344035029411 ]
  - [  -0.0051759472116828,  0.0128646343946457, -0.0427961200475693 ]
  - [  -0.0052316859364510,  0.0119037656113505, -0.0422863550484180 ]
  - [  -0.0047731976956129,  0.0123967956751585, -0.0425412133336067 ]
  - [  -0.0047729946672916,  0.0124024935066700, -0.0425412766635418 ]
  - [  -0.0047786682844162,  0.0124011272564530, -0.0425370894372463 ]
  - [  -0.0047819139435887,  0.0123988678678870, -0.0425394475460052 ]
  - [  -0.0047718994319439,  0.0124033223837614, -0.0425386428833008 ]
  - [  -0.0047719394788146,  0.0124016422778368, -0.0425421372056007 ]
  - [  -0.0037807715125382,  0.0679754167795181,  0.0487772896885872 ]
  - [  -0.0037823631428182,  0.0679795891046524,  0.0487594902515411 ]
  - [  -0.0037835310213268,  0.0679835677146912,  0.0487778410315514 ]
  - [  -0.0037839589640498,  0.0679797828197479,  0.0487726628780365 ]
  - [  -0.0037785642780364,  0.0679803490638733,  0.0487709902226925 ]
  - [  -0.0037845792248845,  0.0679791495203972,  0.0487696751952171 ]
  - [  -0.0026416191831231,  0.0685921758413315,  0.0497440993785858 ]
  - [  -0.0026276940479875,  0.0673724040389061,  0.0477944202721119 ]
  - [  -0.0037425886839628,  0.0679792985320091,  0.0487709194421768 ]
  - [  -0.0040424019098282,  0.0682897940278053,  0.0485994480550289 ]
  - [  -0.0037726848386228,  0.0680040344595909,  0.0487794466316700 ]
  - [  -0.0041198544204235,  0.0676470845937729,  0.0489305183291435 ]
  - [  -0.0031641172245145,  0.0083107799291611, -0.0202279500663280 ]
  - [  -0.0032163278665394,  0.0083203092217445, -0.0202642343938351 ]
  - [  -0.0032149539329112,  0.0083067715167999, -0.0201910808682442 ]
  - [  -0.0032144016586244,  0.0083365514874458, -0.0202204696834087 ]
  - [  -0.0032156505621970,  0.0082929842174053, -0.0202469080686569 ]
  - [  -0.0032221879810095,  0.0083065740764141, -0.0202184915542603 ]
  - [  -0.0038246763870120,  0.0083117932081223, -0.0202213674783707 ]
  - [  -0.0028684437274933,  0.0082235038280487, -0.0204967800527811 ]
  - [  -0.0028754156082869,  0.0084000676870346, -0.0199627280235291 ]
  - [  -0.0033080186694860,  0.0083800218999386, -0.0200617164373398 ]
  - [  -0.0032648246269673,  0.0082413144409657, -0.0202290359884501 ]
  - [  -0.0032888846471906,  0.0083129256963730, -0.0203989017754793 ]
  - [   0.0007508231792599, -0.0108123086392879,  0.0192004702985287 ]
  - [   0.0007531802402809, -0.0109712332487106,  0.0189509112387896 ]
  - [   0.0008036506478675, -0.0108927451074123,  0.0190756563097239 ]
  - [   0.0008395741460845, -0.0108937211334705,  0.0190751869231462 ]
  - [   0.0008462188416161, -0.0108990222215652,  0.0190879721194506 ]
  - [   0.0008133836672641, -0.0108857788145542,  0.0190621986985207 ]
  - [   0.0007515239994973, -0.0108487978577614,  0.0192360877990723 ]
  - [   0.0007506340043619, -0.0109141953289509,  0.0189282819628716 ]
  - [   0.0008692607516423, -0.0109152644872665,  0.0190640985965729 ]
  - [   0.0008178194984794, -0.0108929648995399,  0.0190762262791395 ]
  - [   0.0007009165128693, -0.0107826068997383,  0.0192451048642397 ]
  - [   0.0007063939701766, -0.0110047161579132,  0.0189068801701069 ]
  - [   0.0002734989975579, -0.0726056322455406,  0.0306433625519276 ]
  - [   0.0016436184523627, -0.0724309980869293,  0.0310894623398781 ]
  - [   0.0016437039012089, -0.0727839022874832,  0.0302212908864021 ]
  - [   0.0012202016077936, -0.0726833939552307,  0.0307502131909132 ]
  - [   0.0012845229357481, -0.0725475773215294,  0.0305633228272200 ]
  - [   0.0009832899086177, -0.0725930333137512,  0.0306470207870007 ]
  - [   0.0013394631678239, -0.0726056471467018,  0.0306531190872192 ]
  - [   0.0011228503426537, -0.0726127028465271,  0.0307641681283712 ]
  - [   0.0011259408202022, -0.0726023018360138,  0.0305514223873615 ]
  - [   0.0011475710198283, -0.0725872889161110,  0.0306818298995495 ]
  - [   0.0012145033106208, -0.0726066678762436,  0.0306471027433872 ]
  - [   0.0011440911330283, -0.0726333111524582,  0.0306309945881367 ]
  - [   0.0020631151273847,  0.0747006013989449, -0.0307382047176361 ]
  - [   0.0020631905645132,  0.0746972262859344, -0.0307197533547878 ]
  - [   0.0020775806624442,  0.0746977180242538, -0.0307302121073008 ]
  - [   0.0020709675736725,  0.0746971070766449, -0.0307324584573507 ]
  - [   0.0020588412880898,  0.0746928006410599, -0.0307315029203892 ]
  - [   0.0020725587382913,  0.0747013092041016, -0.0307328775525093 ]
  - [   0.0051668491214514,  0.0728614330291748, -0.0296190753579140 ]
  - [   0.0052072154358029,  0.0765673965215683, -0.0318735614418983 ]
  - [   0.0017331452108920,  0.0746986865997314, -0.0307331532239914 ]
  - [   0.0012727504363284,  0.0746942013502121, -0.0307275764644146 ]
  - [   0.0025783306919038,  0.0744205713272095, -0.0311297047883272 ]
  - [   0.0025676789227873,  0.0749862492084503, -0.0303391106426716 ]
  - [   0.0040908381342888,  0.0001259250566363,  0.0026685856282711 ]
  - [   0.0041346438229084, -0.0039093783125281,  0.0045425128191710 ]
  - [   0.0007417108863592, -0.0018720682710409,  0.0035962751135230 ]
  - [   0.0013958397321403, -0.0020892284810543,  0.0032992952037603 ]
  - [  -0.0000554220750928, -0.0018897564150393,  0.0035960073582828 ]
  - [   0.0013585337437689, -0.0016170432791114,  0.0038843548391014 ]
  - [   0.0009273490868509, -0.0018508145585656,  0.0036055631935596 ]
  - [   0.0009261458180845, -0.0018724249675870,  0.0035765375941992 ]
  - [   0.0009768814779818, -0.0018632393330336,  0.0035893786698580 ]
  - [   0.0009243421372958, -0.0018677739426494,  0.0035908706486225 ]
  - [   0.0009555835276842, -0.0018697660416365,  0.0035770351532847 ]
  - [   0.0009521278552711, -0.0018514483235776,  0.0036032020580024 ]
- atom:    1
  displacement:
    [  -0.0100000000000000,  0.0000000000000000,  0.0000000000000000 ]
  forces:
  - [   0.0171504728496075, -0.0150830121710896,  0.0416043698787689 ]
  - [   0.0020188940688968, -0.0149927632883191,  0.0415111407637596 ]
  - [   0.0020179871935397, -0.0151246897876263,  0.0416855998337269 ]
  - [   0.0021660467609763, -0.0152550032362342,  0.0415363721549511 ]
  - [   0.0022068107500672, -0.0150354327633977,  0.0416103377938271 ]
  - [   0.0022068200632930, -0.0149021046236157,  0.0416459627449512 ]
  - [   0.0022714138031006, -0.0150625593960285,  0.0415962263941765 ]
  - [   0.0022741935681552, -0.0150628350675106,  0.0415944196283817 ]
  - [   0.0022753628436476, -0.0150650646537542,  0.0416001752018929 ]
  - [   0.0022728806361556, -0.0150617966428399,  0.0416008308529854 ]
  - [   0.0022737989202142, -0.0150636015459895,  0.0415922701358795 ]
  - [   0.0022737765684724, -0.0150636453181505,  0.0415963456034660 ]
  - [   0.0044777635484934, -0.0628834143280983, -0.0503600761294365 ]
  - [   0.0044799717143178, -0.0630390495061874, -0.0500128604471684 ]
  - [   0.0044559738598764, -0.0629706382751465, -0.0501965209841728 ]
  - [   0.0045801922678947, -0.0629885122179985, -0.0502494238317013 ]
  - [   0.0043834918178618, -0.0629654452204704, -0.0501894056797028 ]
  - [   0.0045812092721462, -0.0629408434033394, -0.0501317270100117 ]
  - [   0.0045006182044744, -0.0629576966166496, -0.0502980388700962 ]
  - [   0.0045013688504696, -0.0629714056849480, -0.0500741600990295 ]
  - [   0.0044832830317318, -0.0629632398486137, -0.0501882433891296 ]
  - [   0.0044892695732415, -0.0629713684320450, -0.0501885265111923 ]
  - [   0.0044786934740841, -0.0629712715744972, -0.0501919798552990 ]
  - [   0.0044950721785426, -0.0629509389400482, -0.0501818545162678 ]
  - [  -0.0058019841089845,  0.0129740340635180, -0.0417056865990162 ]
  - [  -0.0057455971837044,  0.0118556004017591, -0.0433274805545807 ]
  - [  -0.0047913156449795,  0.0124008804559708, -0.0425386801362038 ]
  - [  -0.0044718729332089,  0.0123714441433549, -0.0425453707575798 ]
  - [  -0.0043744225986302,  0.0119399065151811, -0.0422830656170845 ]
  - [  -0.0043178312480450,  0.0128957098349929, -0.0427923910319805 ]
  - [  -0.0047786198556423,  0.0124027682468295, -0.0425382591784000 ]
  - [  -0.0047769229859114,  0.0123972045257688, -0.0425384826958179 ]
  - [  -0.0047691408544779,  0.0124002341181040, -0.0425422117114067 ]
  - [  -0.0047699753195047,  0.0123994834721088, -0.0425388813018799 ]
  - [  -0.0047778170555830,  0.0124009773135185, -0.0425424873828888 ]
  - [  -0.0047779716551304,  0.0124040022492409, -0.0425386428833008 ]
  - [  -0.0037848851643503,  0.0679830163717270,  0.0487658008933067 ]
  - [  -0.0037806886248291,  0.0679804235696793,  0.0487831197679043 ]
  - [  -0.0037810318171978,  0.0679750740528107,  0.0487657710909843 ]
  - [  -0.0037815491668880,  0.0679787099361420,  0.0487690456211567 ]
  - [  -0.0037848791107535,  0.0679804161190987,  0.0487717986106873 ]
  - [  -0.0037804003804922,  0.0679804384708405,  0.0487730205059052 ]
  - [  -0.0049449433572590,  0.0673592537641525,  0.0477734729647636 ]
  - [  -0.0049142776988447,  0.0685778483748436,  0.0497257299721241 ]
  - [  -0.0038209876511246,  0.0679835006594658,  0.0487706586718559 ]