# Tetrahedron method
       -1.2644380627        0.0000000000
       -1.1955443320        0.0000000000
       -1.1266506012        0.0000000000
       -1.0577568704        0.0000000000
       -0.9888631396        0.0000000000
       -0.9199694088        0.0000000000
       -0.8510756781        0.0000000000
       -0.7821819473        0.0000000000
       -0.7132882165        0.0000000000
       -0.6443944857        0.0000000000
       -0.5755007550        0.0000000000
       -0.5066070242        0.0000000000
       -0.4377132934        0.0000000000
       -0.3688195626        0.0000000000
       -0.2999258319        0.0000000000
       -0.2310321011        0.0000000000
       -0.1621383703        0.0000000000
       -0.0932446395        0.0001099296
       -0.0243509087        0.0017588737
        0.0445428220        0.0066388224
        0.1134365528        0.0316820510
        0.1823302836        0.0524607476
        0.2512240144        0.0834985121
        0.3201177451        0.1218976390
        0.3890114759        0.1643513314
        0.4579052067        0.2217902681
        0.5267989375        0.2716300780
        0.5956926682        0.3377220314
        0.6645863990        0.4116778811
        0.7334801298        0.5032993264
        0.8023738606        0.6153616443
        0.8712675914        0.7800734276
        0.9401613221        0.8959101374
        1.0090550529        1.0197353287
        1.0779487837        1.1943622474
        1.1468425145        1.3532332568
        1.2157362452        1.5374200310
        1.2846299760        1.7990849514
        1.3535237068        2.1026705074
        1.4224174376        2.4388412369
        1.4913111683        2.7379521312
        1.5602048991        3.1191106785
        1.6290986299        2.7451120880
        1.6979923607        2.2215932028
        1.7668860914        2.4729170875
        1.8357798222        3.3082430477
        1.9046735530        3.4908516772
        1.9735672838        4.0940654137
        2.0424610146        4.1494948947
        2.1113547453        3.2794566003
        2.1802484761        3.1848387153
        2.2491422069        4.1086955828
        2.3180359377        4.5183747253
        2.3869296684        5.4904299861
        2.4558233992        2.8438313890
        2.5247171300        3.3982493814
        2.5936108608        3.4715288300
        2.6625045915        2.9014029555
        2.7313983223        3.8511606828
        2.8002920531        2.2591045863
        2.8691857839        1.6730405260
        2.9380795147        0.7893960960
        3.0069732454        0.0000000000
        3.0758669762        0.0000000000
        3.1447607070        0.0000000000
        3.2136544378        0.0000000000
        3.2825481685        0.0000000000
        3.3514418993        0.0000000000
        3.4203356301        0.0000000000
        3.4892293609        0.0000000000
        3.5581230916        0.0000000000
        3.6270168224        0.0000000000
        3.6959105532        0.0000000000
        3.7648042840        0.0000000000
        3.8336980148        0.0000000000
        3.9025917455        0.0000000000
        3.9714854763        0.0000000000
        4.0403792071        0.0000000000
        4.1092729379        0.0000000000
        4.1781666686        0.0000000000
        4.2470603994        0.0000000000
        4.3159541302        0.0000000000
        4.3848478610        0.0000000000
        4.4537415917        0.0000000000
        4.5226353225        0.0000000000
        4.5915290533        0.0000000000
        4.6604227841        0.0000000000
        4.7293165149        0.0000000000
        4.7982102456        0.0000000000
        4.8671039764        0.1230456172
        4.9359977072        0.2928909712
        5.0048914380        0.5829514192
        5.0737851687        0.5942337518
        5.1426788995        0.6179744104
        5.2115726303        0.6489500330
        5.2804663611        0.6882074281
        5.3493600918        0.7390335902
        5.4182538226        0.8058517555
        5.4871475534        0.8948534966
        5.5560412842        1.0330117987
        5.6249350149        1.2538058659
        5.6938287457        1.7592564821
        5.7627224765        2.0375847128
        5.8316162073        2.0123608043
        5.9005099381        5.2119726470
        5.9694036688        3.0793801614
        6.0382973996        2.1217632010
        6.1071911304        1.6059374704
        6.1760848612        1.2756987074
        6.2449785919        1.0888496456
        6.3138723227        1.0126709418
        6.3827660535        0.9839896504
        6.4516597843        0.9798383612
        6.5205535150        0.8581110116
        6.5894472458        0.7958428115
        6.6583409766        0.8218810790
        6.7272347074        1.2727799706
        6.7961284382        1.2697710746
        6.8650221689        1.5175890336
        6.9339158997        1.3166664014
        7.0028096305        1.3158283704
        7.0717033613        1.3437275237
        7.1405970920        1.3621489074
        7.2094908228        1.4087771427
        7.2783845536        1.7444925296
        7.3472782844        3.1328809285
        7.4161720151        3.3776368945
        7.4850657459        2.7651881895
        7.5539594767        3.4318076496
        7.6228532075        2.9537232127
        7.6917469383        4.1348765946
        7.7606406690        4.7363003730
        7.8295343998        8.4935464701
        7.8984281306        5.9680665988
        7.9673218614        3.8602143772
        8.0362155921        3.5261564471
        8.1051093229        3.8578481064
        8.1740030537        3.4301793427
        8.2428967845        1.6065509303
        8.3117905152        0.9977154997
        8.3806842460        1.3543680380
        8.4495779768        1.8651579867
        8.5184717076        1.9046407417
        8.5873654384        1.6310402231
        8.6562591691        1.7634836295
        8.7251528999        2.6495988170
        8.7940466307        2.8379375424
        8.8629403615        3.1678594364
        8.9318340922        2.1693659972
        9.0007278230        2.0678356898
        9.0696215538        1.0082155586
        9.1385152846        0.9000848025
        9.2074090153        0.9907478373
        9.2763027461        0.9498603005
        9.3451964769        1.0678601569
        9.4140902077        1.3347692212
        9.4829839384        1.5247094445
        9.5518776692        1.4781459150
        9.6207714000        1.3015239560
        9.6896651308        1.2075377280
        9.7585588616        1.1732816976
        9.8274525923        0.9625243167
        9.8963463231        0.8799322753
        9.9652400539        0.9339132049
       10.0341337847        0.9751062406
       10.1030275154        1.2589308434
       10.1719212462        1.5252184791
       10.2408149770        1.5980953774
       10.3097087078        1.7028084753
       10.3786024385        1.5993099083
       10.4474961693        0.9261140381
       10.5163899001        1.0379600871
       10.5852836309        1.2396249062
       10.6541773617        1.1834775983
       10.7230710924        1.6732897017
       10.7919648232        4.0785515836
       10.8608585540        2.4328945652
       10.9297522848        2.2407648858
       10.9986460155        1.9230753490
       11.0675397463        1.7842458867
       11.1364334771        1.8616491996
       11.2053272079        2.2815416847
       11.2742209386        2.1626223108
       11.3431146694        1.6515303735
       11.4120084002        0.0000000000
       11.4809021310        0.0000000000
       11.5497958618        0.0000000000
       11.6186895925        0.0000000000
       11.6875833233        0.0000000000
       11.7564770541        0.0000000000
       11.8253707849        0.0000000000
       11.8942645156        0.0000000000
       11.9631582464        0.0000000000
       12.0320519772        0.0000000000
       12.1009457080        0.0000000000
       12.1698394387        0.0000000000
       12.2387331695        0.0000000000
       12.3076269003        0.0000000000
       12.3765206311        0.0000000000
       12.4454143618        0.0000000000
       12.5143080926        0.0000000000
