4
Lattice="4.439853924470695 -0.0004984890333521297 -0.0002596046486372186 0.0003841264440931497 4.060916867752543 -8.291271040656191e-05 0.00028475410688110316 5.896381441131805e-05 4.060901653273676" Properties=species:S:1:pos:R:3:forces:R:3 structure_index=0 total_energy=-11.800249099731445 stress="0.03690842166543007 -0.00023674647673033178 0.00016376459097955376 -0.0002368225104874 0.09507720917463303 -0.0002230247191619128 0.0001638161629671231 -0.000222982038394548 0.09500183910131454" pbc="T T T"
Li       4.00111237       3.70998612       1.12683636       0.00027407      -0.00018306      -0.00034095
Li       4.00114438       1.67948030       3.15723454       0.00011831       0.00000484      -0.00002642
Ga       1.78100314       1.67962219       1.12675108       0.00006126       0.00015777       0.00023500
Sn       1.78151340       3.71013426       3.15719994      -0.00045364       0.00002045       0.00013237
4
Lattice="4.274030979695802 0.00032588867588214326 -0.0004261713196195987 -0.0009632995629333604 4.274063177242848 0.0002462940445996456 0.00025226661669442666 -0.000144890153676423 4.366237491698397" Properties=species:S:1:pos:R:3:forces:R:3 structure_index=1 total_energy=-12.158624649047852 stress="0.005738594103604555 -0.0019248571479693055 -0.0008875917410477996 -0.0019247297896072268 0.005977190099656582 0.000511427060700953 -0.0008874660125002265 0.0005113711231388152 0.08696550875902176" pbc="T T T"
Li       2.95670663       1.84246589       3.17084739      -0.00025070       0.00037798       0.00032877
Ga       0.81906190       1.84304805       0.98824721       0.00073343      -0.00091679      -0.00061778
Ga       2.95621254       3.97995635       0.98809212      -0.00051550      -0.00002992      -0.00045997
Sn       0.81928609       3.97950989       3.17123153       0.00003279       0.00056873       0.00074897
6
Lattice="4.560636027781258 -0.0008844713475601215 0.001361345005180518 -2.2794702052485603 3.9501930940983736 0.0021245780936581435 -0.002325404586721824 -0.005234196504790242 7.463380798941226" Properties=species:S:1:pos:R:3:forces:R:3 structure_index=2 total_energy=-18.66107940673828 stress="0.004040962550789118 2.530255187593866e-05 0.00017056590877473354 2.537556429160759e-05 0.0041625238955020905 0.0003378967521712184 0.00017072755144909024 0.0003377377870492637 0.00203000009059906" pbc="T T T"
Li       2.46152432       1.74533057       5.75139289       0.00026046      -0.00011622       0.04881877
Li       2.46303396       1.74739169       2.02043438       0.00000490       0.00023768       0.04807297
Ga       0.18271818       3.06403945       2.85844048      -0.00000726       0.00002890      -0.02997152
Ga       0.18086789       0.42849610       6.58807254      -0.00000650      -0.00000734      -0.02857569
Sn       0.18354074       3.06622011       0.03253986      -0.00019502      -0.00002242      -0.01962304
Sn       0.18186245       0.43029611       3.76221782      -0.00005655      -0.00012062      -0.01872149
12
Lattice="5.364805368600804 0.08098739548655286 -0.18537681618007873 -0.16038928599440358 5.717483054387329 -2.2706327851276598 0.18042963368381357 -0.05351083173419892 8.180302083206298" Properties=species:S:1:pos:R:3:forces:R:3 structure_index=3 total_energy=-37.5059928894043 stress="-0.017923491075634956 0.012631181627511978 0.016946401447057724 0.012631107121706009 0.018451882526278496 -0.001771526294760406 0.01694639027118683 -0.0017715842695906758 0.005509702954441309" pbc="T T T"
Li       5.08843844       4.28722271      -0.03007088       0.01231634       0.00440132      -0.01002251
Li       2.37825708       5.63145570      -0.51425365       0.00158039       0.00427754      -0.00667400
Li       3.54838548       0.39070419       6.94956051      -0.00967818       0.01273263       0.00399161
Li       1.62904774       2.24401813       3.57502571       0.00390823      -0.01663409       0.00531329
Li       0.81988149       1.76056377       6.52045537      -0.01341980       0.00801916      -0.00726803
Ga       4.34924497       0.89017078       4.03235546       0.00745708       0.00424282       0.00319407
Ga       4.26973630       3.80187061       2.87776756      -0.00099826      -0.01336171       0.00370579
Sn       3.49897449       3.18756067       5.78959070       0.00213088      -0.00169728       0.01187751
Sn       5.14053370       1.39614920       1.16359626       0.00154402      -0.01385302      -0.00338248
Sn       0.76163353       4.61799185       5.37125766       0.02430672       0.01582469       0.02049005
Sn       2.43448776       2.77664461       0.62216660      -0.03154803       0.00453773      -0.01686481
Sn       1.54447475       5.20959804       2.40150053       0.00240061      -0.00848977      -0.00436050
4
Lattice="4.54759847977282 0.00026140360162537084 -0.0008632985243032552 -0.00017072210121249704 4.549607195278196 -0.00039103609582108424 0.000593401777198558 0.0002674069303959187 4.347541699592004" Properties=species:S:1:pos:R:3:forces:R:3 structure_index=4 total_energy=-13.074092864990234 stress="0.0431077741086483 0.0003622668155003339 -0.0008700194885022938 0.0003624734526965767 0.049823302775621414 -0.00040055764839053154 -0.0008699368336237967 -0.00040062019252218306 -0.05328141897916794" pbc="T T T"
Li       4.39474923       3.16981977       0.85565744       0.00051476       0.00037780       0.00017454
Ga       2.12065174       0.89517423       0.85542075      -0.00105881      -0.00024307       0.00206093
Sn       2.12148221       3.16999588       3.03005039      -0.00238808       0.00051803      -0.00141118
Sn       4.39376331       0.89555631       3.02941119       0.00293215      -0.00065278      -0.00082430
12
Lattice="4.124156905659113 -0.02436558414541044 0.0005539296649886227 -2.0303941514810186 6.372904934530877 0.006604626769918545 -0.0013736062743983242 -0.010053826291894838 8.440136458569985" Properties=species:S:1:pos:R:3:forces:R:3 structure_index=5 total_energy=-35.183528900146484 stress="0.03298681601881981 -0.01460724975913763 -0.00043719797395169735 -0.014607277698814869 -0.030951371416449547 -0.0007309677312150598 -0.00043714322964660823 -0.0007309684297069907 0.02598002925515175" pbc="T T T"
Li       2.91082171       2.19379028       6.74704477       0.00061578      -0.00107501       0.00012759
Li       2.91167447       2.19804079       2.52742227       0.00033815      -0.00065888      -0.00096318
Li       0.86951082       6.36777483       4.64120871      -0.00063905       0.03375363      -0.00009651
Li      -1.20060330       4.42540730       0.41835536       0.00035541      -0.03513706       0.00040140
Ga       0.85922989       4.47262036       6.76541722       0.00117814      -0.01029907      -0.00127647
Ga      -1.19227202       6.30909828       6.73287445      -0.00074225       0.01028520       0.00315532
Ga      -1.20334523       4.36096445       4.63737615       0.00121352      -0.00067765       0.00157571
Ga      -1.19165876       6.31459958       2.54827224      -0.00040496       0.01065515      -0.00379455
Ga       0.85996175       4.47788325       2.51222757       0.00093400      -0.01016752       0.00086665
Ga       2.90255626       0.05794127       0.41415941      -0.00119909       0.00314770       0.00050859
Sn       0.84794174       2.14588665       4.63707612       0.00210284       0.00186790      -0.00087928
Sn       0.85169374       2.27310910       0.41665411      -0.00375247      -0.00169439       0.00037472
8
Lattice="4.603613360233527 -0.005168282726911512 0.0014775277390290955 0.004866648621964339 4.109968281467509 0.002735897957435794 -0.0024486421159754736 -0.005573750121011854 8.19132006782957" Properties=species:S:1:pos:R:3:forces:R:3 structure_index=6 total_energy=-24.7213134765625 stress="0.0001909529382828623 0.0009918296709656715 0.0003465422196313739 0.0009917565621435642 0.00276067852973938 0.00019994398462586105 0.0003464825276751071 0.00020003237295895815 0.0013023769715800881" pbc="T T T"
Li       3.85411502       3.21171514       4.09292686       0.00126292      -0.00014674       0.00037880
Li       3.85337087       3.20863557       8.18813869      -0.00008991       0.00021595       0.00151850
Li       3.85173284       1.15539543       6.20421301      -0.00070427      -0.00036361      -0.00604746
Li       3.85302893       1.15781934       1.97942492      -0.00055345       0.00035176       0.00476233
Ga       1.54864519       1.15628161       8.18631126       0.00076340       0.00071000       0.00149990
Sn       1.55219607       3.21293529       6.19268760      -0.00012437      -0.00073957      -0.03799899
Sn       1.55021440       1.15931156       4.09107627      -0.00008264      -0.00049816      -0.00119397
Sn       1.55360888       3.21549782       1.99198017      -0.00047170       0.00047037       0.03708089
4
Lattice="4.281580539600625 -0.0004021841743621986 0.0024761547957060205 0.0016036513600289147 4.281606973918306 0.003580410585810617 -0.001189412088224503 -0.001716630784093525 4.3591220434626985" Properties=species:S:1:pos:R:3:forces:R:3 structure_index=7 total_energy=-12.158622741699219 stress="0.08024153858423233 0.0035551281180232763 0.006500172428786755 0.0035551998298615217 0.08042825758457184 0.009388032369315624 0.006500299088656902 0.009388080798089504 0.09737002849578857" pbc="T T T"
Li       2.85244073       2.60961032       0.79631349      -0.00018068       0.00028660       0.00007415
Ga       0.71089680       2.60893194       2.97489516       0.00063692       0.00042918       0.00006099
Ga       2.85159639       0.46788981       2.97418953      -0.00133982       0.00003240       0.00044968
Sn       0.71086086       0.46926427       0.79369528       0.00088358      -0.00074819      -0.00058484
6
Lattice="5.642036468276129 -0.18751298669621025 -1.130354415740927 -2.012642536440882 3.818051617152639 -1.4842603008309116 -0.011418063937497877 -0.3770270919382774 6.021460785026103" Properties=species:S:1:pos:R:3:forces:R:3 structure_index=8 total_energy=-18.44048309326172 stress="0.040019698441028595 0.026629548519849777 -0.021122749894857407 0.0266294926404953 0.03882114216685295 -0.01034283172339201 -0.021122664213180542 -0.010342842899262905 -0.03416077047586441" pbc="T T T"
Li      -0.26093444       2.51178170       4.20343187      -0.00710375       0.00413678      -0.01533012
Li       3.63226079       0.69995478       1.27847086       0.00714003       0.00843357      -0.00829954
Ga       0.77617322       1.69358967       0.69745017      -0.00103370       0.01123282       0.01758753
Ga       2.60585363       1.89655932      -1.26103534       0.00679429       0.01078250      -0.01672797
Sn      -1.08482359       3.72008578       1.40663033      -0.01291032      -0.01325206       0.00907094
Sn       2.44855398       3.32183299       2.56268080       0.00711345      -0.02133360       0.01369913
5
Lattice="3.9181034774868215 -0.003214203148102142 1.7584075315897747 1.7217756536260982 4.727830934349398 1.4023769925132503 -0.12748278546681333 -0.5952412824438277 5.512233002349455" Properties=species:S:1:pos:R:3:forces:R:3 structure_index=9 total_energy=-15.560726165771484 stress="0.022401832044124603 0.012566203251481056 0.0013047425309196115 0.01256602630019188 -0.0010194223141297698 -0.05313651263713837 0.0013046512613072991 -0.05313656106591225 -0.005944057367742062" pbc="T T T"
Li       5.14710765       4.13922009       6.60453891       0.00641952       0.00241038      -0.01565695
Li       4.03692322       3.41595511       3.84136321       0.00889038      -0.00892234      -0.02272837
Ga       2.85594452       2.13989874       6.46333919      -0.00044345       0.00803747       0.00725434
Sn       0.71511497       0.66879555       0.76274947      -0.00904177      -0.00539660       0.01632231
Sn       1.75622801       1.46777404       3.67620530      -0.00582468       0.00387110       0.01480865
11
Lattice="4.3837675873750745 0.005313418563316355 -1.3363653885013664 0.022306157674757347 5.15178383162681 0.09574043314150851 0.005940410460588128 0.14948779045241217 7.881620069713237" Properties=species:S:1:pos:R:3:forces:R:3 structure_index=10 total_energy=-28.00429344177246 stress="-0.04068173095583916 -0.0030711134895682335 0.005142188630998135 -0.00307121267542243 -0.0057917688973248005 -0.009622550569474697 0.005141681060194969 -0.0096229063346982 -0.02587740682065487" pbc="T T T"
Li       1.24958946       1.75753225       3.95909357       0.00923213       0.01434304       0.02810334
Li       2.39005458       3.59013436      -0.16560015      -0.00099845       0.00764479       0.00201138
Li       2.78131215       0.59701203       1.11175749      -0.00591710      -0.00343924      -0.01890318
Li       0.83568789       4.47153661       2.60936081      -0.00348436       0.00158988      -0.01308769
Li       2.01509380       1.23929558       6.45748101       0.01033548       0.01112855       0.03654955
Li       0.43314707       2.18005160       1.26554952      -0.00598424      -0.02329915      -0.00927336
Li       4.02545579       2.78600945       5.20448627      -0.00228596       0.01439504      -0.00758838
Li       3.61097768       0.28815552       3.83868785       0.00181206      -0.01238593       0.00170282
Ga       1.64067239       4.13495763       5.24820883      -0.00031022       0.01505319      -0.00152492
Ga       0.04592940       5.15062552       7.87290524      -0.00182822      -0.00803789      -0.00328503
Sn       3.18962381       3.00181819       2.46948223      -0.00057118      -0.01699231      -0.01470451
7
Lattice="4.359099199850458 -0.011569958122064869 0.0039211223083413195 -2.1666639087294244 4.917011854466874 -0.636650475155613 -0.005018147856804565 -0.06920960558542413 7.17812992516625" Properties=species:S:1:pos:R:3:forces:R:3 structure_index=11 total_energy=-22.259313583374023 stress="0.03771624341607094 -0.0023396648466587067 0.0066305287182331085 -0.0023396313190460205 0.04414382204413414 -0.004758095368742943 0.006630601827055216 -0.004758141934871674 0.04658785089850426" pbc="T T T"
Li      -0.74740182       4.80980456       0.96068652      -0.00084214      -0.01017956       0.01443617
Li      -0.75424244       3.31278752       5.12266474       0.00010309       0.01158543      -0.00634605
Ga       1.42868957       4.07284994       2.96923609      -0.00096274       0.01571575       0.01553859
Ga       1.42645223       2.68931698       0.09068501       0.00095310      -0.02703763      -0.02001301
Sn       1.42032733       1.23070226       4.40319057      -0.00022410       0.01397696       0.01124998
Sn      -0.75635201       2.07237710       2.18179970       0.00213885      -0.02032487      -0.02419278
Sn       3.59658392       0.39448755       6.57926664      -0.00116606       0.01626390       0.00932710
4
Lattice="4.290467612263903 0.0003253225171722852 -0.00022196036505487077 -0.0010375767528332722 4.290206893784659 0.0013750048573794686 0.000131483146487989 -0.0008390592164080426 4.342402997557762" Properties=species:S:1:pos:R:3:forces:R:3 structure_index=12 total_energy=-12.158510208129883 stress="0.10028111189603806 -0.0020389449782669544 -0.0004458503390196711 -0.0020388488192111254 0.09832436591386795 0.0028023142367601395 -0.00044595194049179554 0.002802159171551466 -0.019846849143505096" pbc="T T T"
Li       2.09433649       3.56383749       3.62766788       0.00028330       0.00152440       0.00121323
Ga       2.09396280       1.41959662       1.45602037       0.00205505      -0.00037300      -0.00105027
Ga       4.23935095       3.56486769       1.45778576      -0.00042697       0.00108911      -0.00399598
Sn       4.24028805       1.41995244       3.62648597      -0.00191138      -0.00224052       0.00383303
5
Lattice="4.524827910945652 -0.0018274174387069746 -0.002317128972930034 -2.2612626449960516 3.9193547186653115 0.0013153979391384003 0.0038118699751072353 -0.00015171285785465466 7.375102600026562" Properties=species:S:1:pos:R:3:forces:R:3 structure_index=13 total_energy=-15.841700553894043 stress="0.043235402554273605 -0.00011770693527068943 0.00012954077101312578 -0.00011765242379624397 0.04306487366557121 3.2029362046159804e-05 0.00012965673522558063 3.195103636244312e-05 0.023524252697825432" pbc="T T T"
Li       1.70689177       3.65218150       0.12445954       0.00036614       0.00004180      -0.00461212
Ga       1.70791286       1.03980437       1.46463499      -0.00035845      -0.00032383      -0.00662432
Ga       1.70950204       1.03975062       6.13472841       0.00054263      -0.00015352       0.00931872
Sn      -0.55277734       2.34676838       5.24610062      -0.00002467       0.00007631       0.01355870
Sn      -0.55343561       2.34670416       2.35582859      -0.00052565       0.00035924      -0.01164098
18
Lattice="4.09272262574536 -0.00277466761079465 0.002110534089759678 0.005252252827059994 6.576208905108642 -1.3343619446662889 -0.005768217071297805 -0.04077007388288286 12.061118426154298" Properties=species:S:1:pos:R:3:forces:R:3 structure_index=14 total_energy=-51.81260681152344 stress="0.008937496691942215 0.0005528946639969945 0.0005229499656707048 0.0005528806359507143 0.014268698170781136 0.004055478610098362 0.000522955262567848 0.004055493511259556 0.0031785282772034407" pbc="T T T"
Li       0.15874744       1.50624995       9.11969503      -0.00103891       0.00139030      -0.04214511
Li       2.21039734       4.87557150       2.27218838      -0.00017622      -0.03472776      -0.02415272
Li       0.16081728       2.10516201       6.17896648      -0.00099110      -0.01342468       0.03391919
Li       0.16193177       5.21215320       6.95578627      -0.00024115       0.00529587       0.02295701
Li       2.20854097       1.80961226       1.55038123      -0.00021114      -0.01322478       0.00761446
Li       2.21168706       5.51742925      -0.50223788       0.00067546       0.01220623       0.02064346
Ga       0.16014220       4.54231901       9.77590303      -0.00108878      -0.00074937      -0.00050080
Ga       2.20492459       0.32615592       7.26706223      -0.00023422       0.01362338      -0.00483840
Ga       2.20438550       2.57533078      10.95827832       0.00012404       0.03071652      -0.03182120
Ga       2.20791714       6.36638567       8.81163434       0.00113990       0.04410103       0.02397609
Ga       2.20671527       0.97261000       4.41214860      -0.00019577       0.01456096      -0.03208360
Ga       2.20824177       4.16769283       5.14809895       0.00009693      -0.02825607       0.01942197
Ga       0.16585979       6.51790952       1.22511521      -0.00067593       0.01128948       0.00095021
Ga       0.16217226       0.78362192      -0.18345125      -0.00035600      -0.02412184       0.01668635
Ga       0.16369724       3.72814700       0.41314946       0.00033046      -0.03003627      -0.00260188
Ga       0.16376444       5.94788297       4.18357632       0.00041868       0.00056560      -0.02284475
Sn       0.16185186       2.97574477       3.37578057       0.00051754       0.00514639      -0.00585715
Sn       2.20610202       3.29973461       7.99171190       0.00190622       0.00564502       0.02067687
5
Lattice="2.895700885383336 0.0018610542232789186 -0.0017704318201730183 -0.003566443279271247 4.4009489020181425 -1.308163146615404 0.006280183034420061 -0.2082170814644772 7.358214340132808" Properties=species:S:1:pos:R:3:forces:R:3 structure_index=15 total_energy=-14.80598258972168 stress="-0.03741171211004257 0.00030338417855091393 0.00031001048046164215 0.0003034281835425645 -0.04961180314421654 0.0004791769024450332 0.0003100610338151455 0.000479279609862715 -0.04818342253565788" pbc="T T T"
Li       0.62640770       1.82445253       0.36396674      -0.00091794       0.00945739       0.02395912
Li       0.62832649       0.70155668       4.63114763       0.00045343      -0.00954995      -0.02413034
Ga       2.07379675       2.54791003       2.78372345       0.00095163      -0.00705531      -0.01717624
Ga       2.07570494      -0.01872407       2.20911233       0.00016265       0.00625825       0.01717189
Sn       2.07708640       3.35970888       5.52173023      -0.00064976       0.00088963       0.00017556
12
Lattice="4.2436177061318165 -0.0008226321443401172 -0.7696720287040869 -0.12786715677252306 3.9460438477995936 -0.7086127194634393 0.06597021084549717 0.20120172613296783 12.451116103326612" Properties=species:S:1:pos:R:3:forces:R:3 structure_index=16 total_energy=-34.43757247924805 stress="0.03372706100344658 -0.0017996635288000107 -0.014137919060885906 -0.0017996813403442502 0.014931817539036274 -0.005577988922595978 -0.014137783087790012 -0.005577906966209412 -0.03457153961062431" pbc="T T T"
Li       3.70424596       0.63163210       6.87745898       0.00202971       0.00318290       0.01183227
Li       0.15151103       1.34018895      11.46052372      -0.00296017      -0.00352521      -0.01982159
Li       3.27121363       2.22774402       4.48619076       0.00061840      -0.00126570       0.00249472
Li       3.96922050       2.94148789       8.33915666       0.00354459       0.00381273       0.01804642
Li       0.37146186       3.47010812       0.58279237      -0.00698893      -0.00702498      -0.03866673
Li       0.77095123       1.84088071       2.78671999       0.00310465       0.00206114       0.01708972
Ga       2.58808326       1.52839260       0.72334505      -0.00433826      -0.00519426      -0.02571372
Ga       2.83780876       3.82177047       2.09613733       0.00274646       0.00390031       0.01451487
Ga       1.89908261       0.95631818       9.00957608       0.00655542       0.00774567       0.03645685
Ga       1.51793214       2.60546401       6.90616728      -0.00027390      -0.00256701      -0.00321504
Sn       1.20960385       0.25049921       5.20344365      -0.00104135       0.00122065       0.00044484
Sn       2.20738276       3.31045530      10.70876525      -0.00299662      -0.00234620      -0.01346260
4
Lattice="4.058015784394249 0.0013767468379267146 -0.0017542461840698556 -0.002078493333251451 4.058164212023374 1.292328764388283e-05 0.0020563460153399417 -1.577570109025319e-05 4.447492214655758" Properties=species:S:1:pos:R:3:forces:R:3 structure_index=17 total_energy=-11.80024528503418 stress="0.07057332992553711 -0.006535979453474283 0.0004252120270393789 -0.006535933818668127 0.07131639122962952 -5.011213033867534e-06 0.0004251203790772706 -5.03193587064743e-06 0.10728459060192108" pbc="T T T"
Li       0.25941937       3.17115977       4.21393900      -0.00033867      -0.00049111      -0.00057789
Li       2.28905202       1.14258896       4.21269337       0.00053761      -0.00034515       0.00008738
Ga       0.25905698       1.14180291       1.99000836       0.00155303      -0.00114080      -0.00003309
Sn       2.28752016       3.17115324       1.98896272      -0.00175197       0.00197705       0.00052360
6
Lattice="4.563747594217287 0.00404269253274608 -0.0007046059201584792 -2.285530114241096 3.950351672240687 -0.0010552810815736354 0.001661923954603432 0.0032490279737493635 7.481441305276205" Properties=species:S:1:pos:R:3:forces:R:3 structure_index=18 total_energy=-18.664512634277344 stress="-0.017727715894579887 -0.0002938404504675418 6.664534885203466e-05 -0.0002938446123152971 -0.01758105866611004 -0.00022129628632683307 6.649801798630506e-05 -0.00022114183229859918 -0.00039925568853504956" pbc="T T T"
Li       3.38615580       1.13011270       0.09581428      -0.00034626       0.00025067      -0.00545128
Li       3.38574130       1.13187879       3.83584009       0.00012550       0.00078966      -0.00505743
Ga       1.10423508       2.44863423       6.81395718       0.00157745       0.00043309      -0.01521884
Ga      -1.18042400       3.76294190       3.07388796      -0.00012657      -0.00086942      -0.02218617
Sn       1.10239911       2.44710906       2.14945910       0.00081709      -0.00025622       0.01630452
Sn      -1.17861996       3.76383862       5.88827603      -0.00204720      -0.00034775       0.03160923
8
Lattice="4.712823610532414 -0.0010084289583118249 -0.0033064101858603337 -0.0009736069857399281 5.239291218606835 -2.999488215640167 0.004249548798616476 -0.3667134056356362 6.0260721862066795" Properties=species:S:1:pos:R:3:forces:R:3 structure_index=19 total_energy=-23.634254455566406 stress="0.0431857593357563 0.00014787616964895278 0.0001940717629622668 0.00014799962809775025 -0.0013365579070523381 0.034858107566833496 0.0001941174123203382 0.034858088940382004 -0.03597824275493622" pbc="T T T"
Li       4.56686455       2.14955391       3.23036183      -0.00014638      -0.00844714       0.01726256
Li       4.56416878       4.89211947      -1.32006994      -0.00005770      -0.01247684       0.01526603
Li       2.20800629       0.45476565       0.38909582      -0.00004774       0.00839856      -0.01768469
Li       2.20968959       2.95151756       1.93969352      -0.00003062       0.01242876      -0.01489470
Ga       2.20745082       3.16055301      -1.18068747       0.00015202      -0.00465181       0.00720964
Ga       4.56630158       4.68302656       1.80045544       0.00000955       0.00468014      -0.00719160
Sn       4.56473325       2.27792671       0.23694274      -0.00013895       0.00731391      -0.01101404
Sn       2.21001800       0.32636289       3.38232767       0.00025983      -0.00724559       0.01104682
4
Lattice="3.727248023701465 -0.00010460644743194397 -0.0018739319849771304 0.00013202459498110592 3.734497722912619 -0.0007213245858569122 0.0009883282589685097 0.00034451717253337574 6.536922632034736" Properties=species:S:1:pos:R:3:forces:R:3 structure_index=20 total_energy=-12.953184127807617 stress="-0.011329296045005322 0.00015578446618746966 -0.0030451477505266666 0.0001558247022330761 -0.05310336872935295 -0.0011184747563675046 -0.0030450511258095503 -0.0011184440227225423 0.014847525395452976" pbc="T T T"
Li       1.15655875       0.72409092       0.62306546       0.00053850      -0.00013880      -0.00021302
Ga       1.15786965       0.72425981       3.89183713      -0.00062247      -0.00021265      -0.00155778
Sn       3.02156318       2.59161736       5.50185743      -0.00000048      -0.00008378      -0.03396025
Sn       3.02089807       2.59109886       2.27771002       0.00008446       0.00043524       0.03573105
10
Lattice="4.853849955845698 -0.000791827760397616 1.560909065548001 0.00041053456279658505 4.765998749808354 0.0011449401364895513 0.26500890539751704 -0.0018238860533293425 7.8798822091061735" Properties=species:S:1:pos:R:3:forces:R:3 structure_index=21 total_energy=-28.08114242553711 stress="0.03518572449684143 6.095104981795885e-05 -0.02451438084244728 6.0905807913513854e-05 0.021895013749599457 0.00010930078133242205 -0.02451426535844803 0.00010931072029052302 0.020337378606200218" pbc="T T T"
Li       2.52419481       4.26328203       2.40070866       0.01101974      -0.00002089      -0.00948986
Li       0.54510312       1.87927241       6.42912890      -0.00995877       0.00028419       0.00152042
Li       2.20438532       1.88022737       0.81254405      -0.01332427       0.00049844      -0.02988047
Li       4.68800564       4.26273427       4.60046559       0.02668420      -0.00004909       0.03667285
Li       1.73499075       4.26311082       5.23809779       0.01455614      -0.00045729       0.02140285
Li       4.30925385       1.87972159       3.04228056      -0.00984769       0.00027234      -0.01989957
Ga       3.77435959       4.26188857       7.43439078      -0.02079277       0.00011146       0.00701455
Ga       1.43207930       1.88091226       3.58365912       0.00573519      -0.00097896      -0.00204918
Sn       0.55711903       4.26350714       0.23482255      -0.01756655       0.00050391       0.00486878
Sn       3.42209205       1.87955631       5.78063752       0.01349480      -0.00016410      -0.01016039
12
Lattice="4.194879904964901 -0.014180607614175127 0.0008986391868060429 -2.0707528770824837 6.3740954113548955 -0.05642398445322133 -0.0015883559871160719 -0.023424743937184554 8.301780012840855" Properties=species:S:1:pos:R:3:forces:R:3 structure_index=22 total_energy=-35.1236686706543 stress="0.008073284290730953 0.015365426428616047 0.001834618509747088 0.015365474857389927 -0.02313612774014473 0.006225589197129011 0.0018346314318478107 0.006225487682968378 0.017967121675610542" pbc="T T T"
Li       0.26657221       4.90742001       7.13580081      -0.00040274       0.02531844       0.02035638
Li       2.34468054       0.49767306       5.04278252       0.00125091       0.01507883      -0.01937153
Li       2.35637017       2.66507694       2.94250216      -0.00209292      -0.03147563      -0.00979900
Li       2.35468162       2.56767764       7.15543638      -0.00075632      -0.01196016      -0.00839329
Ga       0.26560000       4.93821809       2.96921319       0.00350195      -0.01581454       0.00351975
Ga       0.24734675       0.40160374       7.10603461      -0.00021065      -0.01022210       0.02653948
Ga       0.24779147       0.45072513       3.00570470      -0.00203651      -0.01105570      -0.00831352
Ga       2.36213202       4.83513668       5.07351680       0.00148071       0.01316178      -0.04354446
Ga       2.34689272       0.48585645       0.91419222      -0.00064051       0.02218914       0.02198672
Ga       2.36474653       4.91282183       0.85362794       0.00061193      -0.00262784       0.03310556
Sn       0.25924550       2.72325665       0.89738543      -0.00086232       0.01030083       0.00560150
Sn       0.25720680       2.69228340       5.07576632       0.00015648      -0.00289304      -0.02168758
10