phonopy:
  version: "2.37.1"
  frequency_unit_conversion_factor: 15.633302
  symmetry_tolerance: 1.00000e-05

space_group:
  type: "P1"
  number: 1
  Hall_symbol: "P 1"

primitive_matrix:
- [ -1.000000000000000,  0.000000000000000, -0.000000000000000 ]
- [  0.000000000000000,  1.000000000000000, -0.000000000000000 ]
- [  0.000000000000000,  0.000000000000000, -1.000000000000000 ]

supercell_matrix:
- [   2,   0,   0 ]
- [   0,   2,   0 ]
- [   0,   0,   2 ]

primitive_cell:
  lattice:
  - [    -5.530086280462056,     0.000000000000000,     0.000000000000000 ] # a
  - [    -0.423740812831107,     6.142665567115992,     0.000000000000000 ] # b
  - [    -0.403329308612399,     1.255686256827399,    -8.213034028695947 ] # c
  points:
  - symbol: Li # 1
    coordinates: [  0.411600378236779,  0.747008378282607,  0.940685336490775 ]
    mass: 6.940000
  - symbol: Li # 2
    coordinates: [  0.239034213870884,  0.262970087820343,  0.932766049785642 ]
    mass: 6.940000
  - symbol: Li # 3
    coordinates: [  0.242966278798589,  0.602328498073208,  0.590995418786147 ]
    mass: 6.940000
  - symbol: Li # 4
    coordinates: [  0.904692198214101,  0.246638303860386,  0.442941689040949 ]
    mass: 6.940000
  - symbol: Li # 5
    coordinates: [  0.745001158669501,  0.075304850833863,  0.100733097446698 ]
    mass: 6.940000
  - symbol: Sn # 6
    coordinates: [  0.400051376268792,  0.094688810659307,  0.611630408936489 ]
    mass: 118.710000
  - symbol: Sn # 7
    coordinates: [  0.409410911258386,  0.407431193126296,  0.268463571660282 ]
    mass: 118.710000
  - symbol: Sn # 8
    coordinates: [  0.729204648683176,  0.418668594400728,  0.770862120491505 ]
    mass: 118.710000
  - symbol: Sn # 9
    coordinates: [  0.907156628266902,  0.568691976457920,  0.098813705236920 ]
    mass: 118.710000
  - symbol: Sn # 10
    coordinates: [  0.746332955061151,  0.755449115255763,  0.439558719903523 ]
    mass: 118.710000
  - symbol: Sn # 11
    coordinates: [  0.240874786399374,  0.924629833444565,  0.254850906956934 ]
    mass: 118.710000
  - symbol: Sn # 12
    coordinates: [  0.919225627676216,  0.921188368230883,  0.782854426490895 ]
    mass: 118.710000
  reciprocal_lattice: # without 2pi
  - [    -0.180829005061463,    -0.012474165938381,     0.006973062409604 ] # a*
  - [    -0.000000000000000,     0.162795774745312,     0.024889756489870 ] # b*
  - [    -0.000000000000000,     0.000000000000000,    -0.121757683762912 ] # c*

unit_cell:
  lattice:
  - [     5.530086280462056,     0.000000000000000,     0.000000000000000 ] # a
  - [    -0.423740812831107,     6.142665567115993,     0.000000000000000 ] # b
  - [     0.403329308612399,    -1.255686256827399,     8.213034028695947 ] # c
  points:
  - symbol: Li # 1
    coordinates: [  0.588399621763221,  0.747008378282607,  0.059314663509225 ]
    mass: 6.940000
    reduced_to: 1
  - symbol: Li # 2
    coordinates: [  0.760965786129116,  0.262970087820342,  0.067233950214358 ]
    mass: 6.940000
    reduced_to: 2
  - symbol: Li # 3
    coordinates: [  0.757033721201411,  0.602328498073208,  0.409004581213853 ]
    mass: 6.940000
    reduced_to: 3
  - symbol: Li # 4
    coordinates: [  0.095307801785899,  0.246638303860386,  0.557058310959051 ]
    mass: 6.940000
    reduced_to: 4
  - symbol: Li # 5
    coordinates: [  0.254998841330499,  0.075304850833863,  0.899266902553302 ]
    mass: 6.940000
    reduced_to: 5
  - symbol: Sn # 6
    coordinates: [  0.599948623731208,  0.094688810659307,  0.388369591063511 ]
    mass: 118.710000
    reduced_to: 6
  - symbol: Sn # 7
    coordinates: [  0.590589088741614,  0.407431193126296,  0.731536428339718 ]
    mass: 118.710000
    reduced_to: 7
  - symbol: Sn # 8
    coordinates: [  0.270795351316824,  0.418668594400728,  0.229137879508495 ]
    mass: 118.710000
    reduced_to: 8
  - symbol: Sn # 9
    coordinates: [  0.092843371733098,  0.568691976457920,  0.901186294763080 ]
    mass: 118.710000
    reduced_to: 9
  - symbol: Sn # 10
    coordinates: [  0.253667044938849,  0.755449115255762,  0.560441280096477 ]
    mass: 118.710000
    reduced_to: 10
  - symbol: Sn # 11
    coordinates: [  0.759125213600626,  0.924629833444565,  0.745149093043066 ]
    mass: 118.710000
    reduced_to: 11
  - symbol: Sn # 12
    coordinates: [  0.080774372323784,  0.921188368230883,  0.217145573509105 ]
    mass: 118.710000
    reduced_to: 12

supercell:
  lattice:
  - [    11.060172560924112,     0.000000000000000,     0.000000000000000 ] # a
  - [    -0.847481625662214,    12.285331134231987,     0.000000000000000 ] # b
  - [     0.806658617224798,    -2.511372513654798,    16.426068057391895 ] # c
  points:
  - symbol: Li # 1
    coordinates: [  0.294199810881610,  0.373504189141303,  0.029657331754613 ]
    mass: 6.940000
    reduced_to: 1
  - symbol: Li # 2
    coordinates: [  0.794199810881610,  0.373504189141303,  0.029657331754613 ]
    mass: 6.940000
    reduced_to: 1
  - symbol: Li # 3
    coordinates: [  0.294199810881610,  0.873504189141303,  0.029657331754613 ]
    mass: 6.940000
    reduced_to: 1
  - symbol: Li # 4
    coordinates: [  0.794199810881610,  0.873504189141303,  0.029657331754613 ]
    mass: 6.940000
    reduced_to: 1
  - symbol: Li # 5
    coordinates: [  0.294199810881610,  0.373504189141303,  0.529657331754613 ]
    mass: 6.940000
    reduced_to: 1
  - symbol: Li # 6
    coordinates: [  0.794199810881610,  0.373504189141303,  0.529657331754613 ]
    mass: 6.940000
    reduced_to: 1
  - symbol: Li # 7
    coordinates: [  0.294199810881610,  0.873504189141303,  0.529657331754613 ]
    mass: 6.940000
    reduced_to: 1
  - symbol: Li # 8
    coordinates: [  0.794199810881610,  0.873504189141303,  0.529657331754613 ]
    mass: 6.940000
    reduced_to: 1
  - symbol: Li # 9
    coordinates: [  0.380482893064558,  0.131485043910171,  0.033616975107179 ]
    mass: 6.940000
    reduced_to: 9
  - symbol: Li # 10
    coordinates: [  0.880482893064558,  0.131485043910171,  0.033616975107179 ]
    mass: 6.940000
    reduced_to: 9
  - symbol: Li # 11
    coordinates: [  0.380482893064558,  0.631485043910171,  0.033616975107179 ]
    mass: 6.940000
    reduced_to: 9
  - symbol: Li # 12
    coordinates: [  0.880482893064558,  0.631485043910171,  0.033616975107179 ]
    mass: 6.940000
    reduced_to: 9
  - symbol: Li # 13
    coordinates: [  0.380482893064558,  0.131485043910171,  0.533616975107179 ]
    mass: 6.940000
    reduced_to: 9
  - symbol: Li # 14
    coordinates: [  0.880482893064558,  0.131485043910171,  0.533616975107179 ]
    mass: 6.940000
    reduced_to: 9
  - symbol: Li # 15
    coordinates: [  0.380482893064558,  0.631485043910171,  0.533616975107179 ]
    mass: 6.940000
    reduced_to: 9
  - symbol: Li # 16
    coordinates: [  0.880482893064558,  0.631485043910171,  0.533616975107179 ]
    mass: 6.940000
    reduced_to: 9
  - symbol: Li # 17
    coordinates: [  0.378516860600705,  0.301164249036604,  0.204502290606927 ]
    mass: 6.940000
    reduced_to: 17
  - symbol: Li # 18
    coordinates: [  0.878516860600705,  0.301164249036604,  0.204502290606927 ]
    mass: 6.940000
    reduced_to: 17
  - symbol: Li # 19
    coordinates: [  0.378516860600705,  0.801164249036604,  0.204502290606927 ]
    mass: 6.940000
    reduced_to: 17
  - symbol: Li # 20
    coordinates: [  0.878516860600705,  0.801164249036604,  0.204502290606927 ]
    mass: 6.940000
    reduced_to: 17
  - symbol: Li # 21
    coordinates: [  0.378516860600705,  0.301164249036604,  0.704502290606926 ]
    mass: 6.940000
    reduced_to: 17
  - symbol: Li # 22
    coordinates: [  0.878516860600705,  0.301164249036604,  0.704502290606926 ]
    mass: 6.940000
    reduced_to: 17
  - symbol: Li # 23
    coordinates: [  0.378516860600705,  0.801164249036604,  0.704502290606926 ]
    mass: 6.940000
    reduced_to: 17
  - symbol: Li # 24
    coordinates: [  0.878516860600705,  0.801164249036604,  0.704502290606926 ]
    mass: 6.940000
    reduced_to: 17
  - symbol: Li # 25
    coordinates: [  0.047653900892949,  0.123319151930193,  0.278529155479526 ]
    mass: 6.940000
    reduced_to: 25
  - symbol: Li # 26
    coordinates: [  0.547653900892950,  0.123319151930193,  0.278529155479526 ]
    mass: 6.940000
    reduced_to: 25
  - symbol: Li # 27
    coordinates: [  0.047653900892949,  0.623319151930193,  0.278529155479526 ]
    mass: 6.940000
    reduced_to: 25
  - symbol: Li # 28
    coordinates: [  0.547653900892950,  0.623319151930193,  0.278529155479526 ]
    mass: 6.940000
    reduced_to: 25
  - symbol: Li # 29
    coordinates: [  0.047653900892949,  0.123319151930193,  0.778529155479526 ]
    mass: 6.940000
    reduced_to: 25
  - symbol: Li # 30
    coordinates: [  0.547653900892950,  0.123319151930193,  0.778529155479526 ]
    mass: 6.940000
    reduced_to: 25
  - symbol: Li # 31
    coordinates: [  0.047653900892949,  0.623319151930193,  0.778529155479526 ]
    mass: 6.940000
    reduced_to: 25
  - symbol: Li # 32
    coordinates: [  0.547653900892950,  0.623319151930193,  0.778529155479526 ]
    mass: 6.940000
    reduced_to: 25
  - symbol: Li # 33
    coordinates: [  0.127499420665250,  0.037652425416932,  0.449633451276651 ]
    mass: 6.940000
    reduced_to: 33
  - symbol: Li # 34
    coordinates: [  0.627499420665250,  0.037652425416932,  0.449633451276651 ]
    mass: 6.940000
    reduced_to: 33
  - symbol: Li # 35
    coordinates: [  0.127499420665250,  0.537652425416931,  0.449633451276651 ]
    mass: 6.940000
    reduced_to: 33
  - symbol: Li # 36
    coordinates: [  0.627499420665250,  0.537652425416931,  0.449633451276651 ]
    mass: 6.940000
    reduced_to: 33
  - symbol: Li # 37
    coordinates: [  0.127499420665250,  0.037652425416932,  0.949633451276651 ]
    mass: 6.940000
    reduced_to: 33
  - symbol: Li # 38
    coordinates: [  0.627499420665250,  0.037652425416932,  0.949633451276651 ]
    mass: 6.940000
    reduced_to: 33
  - symbol: Li # 39
    coordinates: [  0.127499420665250,  0.537652425416931,  0.949633451276651 ]
    mass: 6.940000
    reduced_to: 33
  - symbol: Li # 40
    coordinates: [  0.627499420665250,  0.537652425416931,  0.949633451276651 ]
    mass: 6.940000
    reduced_to: 33
  - symbol: Sn # 41
    coordinates: [  0.299974311865604,  0.047344405329653,  0.194184795531756 ]
    mass: 118.710000
    reduced_to: 41
  - symbol: Sn # 42
    coordinates: [  0.799974311865604,  0.047344405329653,  0.194184795531756 ]
    mass: 118.710000
    reduced_to: 41
  - symbol: Sn # 43
    coordinates: [  0.299974311865604,  0.547344405329653,  0.194184795531756 ]
    mass: 118.710000
    reduced_to: 41
  - symbol: Sn # 44
    coordinates: [  0.799974311865604,  0.547344405329653,  0.194184795531756 ]
    mass: 118.710000
    reduced_to: 41
  - symbol: Sn # 45
    coordinates: [  0.299974311865604,  0.047344405329653,  0.694184795531755 ]
    mass: 118.710000
    reduced_to: 41
  - symbol: Sn # 46
    coordinates: [  0.799974311865604,  0.047344405329653,  0.694184795531755 ]
    mass: 118.710000
    reduced_to: 41
  - symbol: Sn # 47
    coordinates: [  0.299974311865604,  0.547344405329653,  0.694184795531755 ]
    mass: 118.710000
    reduced_to: 41
  - symbol: Sn # 48
    coordinates: [  0.799974311865604,  0.547344405329653,  0.694184795531755 ]
    mass: 118.710000
    reduced_to: 41
  - symbol: Sn # 49
    coordinates: [  0.295294544370807,  0.203715596563148,  0.365768214169859 ]
    mass: 118.710000
    reduced_to: 49
  - symbol: Sn # 50
    coordinates: [  0.795294544370807,  0.203715596563148,  0.365768214169859 ]
    mass: 118.710000
    reduced_to: 49
  - symbol: Sn # 51
    coordinates: [  0.295294544370807,  0.703715596563148,  0.365768214169859 ]
    mass: 118.710000
    reduced_to: 49
  - symbol: Sn # 52
    coordinates: [  0.795294544370807,  0.703715596563148,  0.365768214169859 ]
    mass: 118.710000
    reduced_to: 49
  - symbol: Sn # 53
    coordinates: [  0.295294544370807,  0.203715596563148,  0.865768214169859 ]
    mass: 118.710000
    reduced_to: 49
  - symbol: Sn # 54
    coordinates: [  0.795294544370807,  0.203715596563148,  0.865768214169859 ]
    mass: 118.710000
    reduced_to: 49
  - symbol: Sn # 55
    coordinates: [  0.295294544370807,  0.703715596563148,  0.865768214169859 ]
    mass: 118.710000
    reduced_to: 49
  - symbol: Sn # 56
    coordinates: [  0.795294544370807,  0.703715596563148,  0.865768214169859 ]
    mass: 118.710000
    reduced_to: 49
  - symbol: Sn # 57
    coordinates: [  0.135397675658412,  0.209334297200364,  0.114568939754248 ]
    mass: 118.710000
    reduced_to: 57
  - symbol: Sn # 58
    coordinates: [  0.635397675658412,  0.209334297200364,  0.114568939754248 ]
    mass: 118.710000
    reduced_to: 57
  - symbol: Sn # 59
    coordinates: [  0.135397675658412,  0.709334297200364,  0.114568939754248 ]
    mass: 118.710000
    reduced_to: 57
  - symbol: Sn # 60
    coordinates: [  0.635397675658412,  0.709334297200364,  0.114568939754248 ]
    mass: 118.710000
    reduced_to: 57
  - symbol: Sn # 61
    coordinates: [  0.135397675658412,  0.209334297200364,  0.614568939754248 ]
    mass: 118.710000
    reduced_to: 57
  - symbol: Sn # 62
    coordinates: [  0.635397675658412,  0.209334297200364,  0.614568939754248 ]
    mass: 118.710000
    reduced_to: 57
  - symbol: Sn # 63
    coordinates: [  0.135397675658412,  0.709334297200364,  0.614568939754248 ]
    mass: 118.710000
    reduced_to: 57
  - symbol: Sn # 64
    coordinates: [  0.635397675658412,  0.709334297200364,  0.614568939754248 ]
    mass: 118.710000
    reduced_to: 57
  - symbol: Sn # 65
    coordinates: [  0.046421685866549,  0.284345988228960,  0.450593147381540 ]
    mass: 118.710000
    reduced_to: 65
  - symbol: Sn # 66
    coordinates: [  0.546421685866549,  0.284345988228960,  0.450593147381540 ]
    mass: 118.710000
    reduced_to: 65
  - symbol: Sn # 67
    coordinates: [  0.046421685866549,  0.784345988228960,  0.450593147381540 ]
    mass: 118.710000
    reduced_to: 65
  - symbol: Sn # 68
    coordinates: [  0.546421685866549,  0.784345988228960,  0.450593147381540 ]
    mass: 118.710000
    reduced_to: 65
  - symbol: Sn # 69
    coordinates: [  0.046421685866549,  0.284345988228960,  0.950593147381540 ]
    mass: 118.710000
    reduced_to: 65
  - symbol: Sn # 70
    coordinates: [  0.546421685866549,  0.284345988228960,  0.950593147381540 ]
    mass: 118.710000
    reduced_to: 65
  - symbol: Sn # 71
    coordinates: [  0.046421685866549,  0.784345988228960,  0.950593147381540 ]
    mass: 118.710000
    reduced_to: 65
  - symbol: Sn # 72
    coordinates: [  0.546421685866549,  0.784345988228960,  0.950593147381540 ]
    mass: 118.710000
    reduced_to: 65
  - symbol: Sn # 73
    coordinates: [  0.126833522469425,  0.377724557627881,  0.280220640048238 ]
    mass: 118.710000
    reduced_to: 73
  - symbol: Sn # 74
    coordinates: [  0.626833522469425,  0.377724557627881,  0.280220640048238 ]
    mass: 118.710000
    reduced_to: 73
  - symbol: Sn # 75
    coordinates: [  0.126833522469425,  0.877724557627881,  0.280220640048238 ]
    mass: 118.710000
    reduced_to: 73
  - symbol: Sn # 76
    coordinates: [  0.626833522469425,  0.877724557627881,  0.280220640048238 ]
    mass: 118.710000
    reduced_to: 73
  - symbol: Sn # 77
    coordinates: [  0.126833522469425,  0.377724557627881,  0.780220640048238 ]
    mass: 118.710000
    reduced_to: 73
  - symbol: Sn # 78
    coordinates: [  0.626833522469425,  0.377724557627881,  0.780220640048238 ]
    mass: 118.710000
    reduced_to: 73
  - symbol: Sn # 79
    coordinates: [  0.126833522469425,  0.877724557627881,  0.780220640048238 ]
    mass: 118.710000
    reduced_to: 73
  - symbol: Sn # 80
    coordinates: [  0.626833522469425,  0.877724557627881,  0.780220640048238 ]
    mass: 118.710000
    reduced_to: 73
  - symbol: Sn # 81
    coordinates: [  0.379562606800313,  0.462314916722282,  0.372574546521533 ]
    mass: 118.710000
    reduced_to: 81
  - symbol: Sn # 82
    coordinates: [  0.879562606800313,  0.462314916722282,  0.372574546521533 ]
    mass: 118.710000
    reduced_to: 81
  - symbol: Sn # 83
    coordinates: [  0.379562606800313,  0.962314916722282,  0.372574546521533 ]
    mass: 118.710000
    reduced_to: 81
  - symbol: Sn # 84
    coordinates: [  0.879562606800313,  0.962314916722282,  0.372574546521533 ]
    mass: 118.710000
    reduced_to: 81
  - symbol: Sn # 85
    coordinates: [  0.379562606800313,  0.462314916722282,  0.872574546521533 ]
    mass: 118.710000
    reduced_to: 81
  - symbol: Sn # 86
    coordinates: [  0.879562606800313,  0.462314916722282,  0.872574546521533 ]
    mass: 118.710000
    reduced_to: 81
  - symbol: Sn # 87
    coordinates: [  0.379562606800313,  0.962314916722282,  0.872574546521533 ]
    mass: 118.710000
    reduced_to: 81
  - symbol: Sn # 88
    coordinates: [  0.879562606800313,  0.962314916722282,  0.872574546521533 ]
    mass: 118.710000
    reduced_to: 81
  - symbol: Sn # 89
    coordinates: [  0.040387186161892,  0.460594184115441,  0.108572786754552 ]
    mass: 118.710000
    reduced_to: 89
  - symbol: Sn # 90
    coordinates: [  0.540387186161892,  0.460594184115441,  0.108572786754552 ]
    mass: 118.710000
    reduced_to: 89
  - symbol: Sn # 91
    coordinates: [  0.040387186161892,  0.960594184115441,  0.108572786754552 ]
    mass: 118.710000
    reduced_to: 89
  - symbol: Sn # 92
    coordinates: [  0.540387186161892,  0.960594184115441,  0.108572786754552 ]
    mass: 118.710000
    reduced_to: 89
  - symbol: Sn # 93
    coordinates: [  0.040387186161892,  0.460594184115441,  0.608572786754552 ]
    mass: 118.710000
    reduced_to: 89
  - symbol: Sn # 94
    coordinates: [  0.540387186161892,  0.460594184115441,  0.608572786754552 ]
    mass: 118.710000
    reduced_to: 89
  - symbol: Sn # 95
    coordinates: [  0.040387186161892,  0.960594184115441,  0.608572786754552 ]
    mass: 118.710000
    reduced_to: 89
  - symbol: Sn # 96
    coordinates: [  0.540387186161892,  0.960594184115441,  0.608572786754552 ]
    mass: 118.710000
    reduced_to: 89

displacements:
- atom:    1
  displacement:
    [   0.0100000000000000,  0.0000000000000000,  0.0000000000000000 ]
  forces:
  - [  -0.0108722057193518,  0.0187598392367363,  0.0213618874549866 ]
  - [   0.0059189302846789,  0.0214194916188717,  0.0205343812704086 ]
  - [   0.0056703016161919,  0.0214811954647303,  0.0204715728759766 ]
  - [   0.0057019423693419,  0.0214657746255398,  0.0204792339354753 ]
  - [   0.0056311860680580,  0.0214810129255056,  0.0204795710742474 ]
  - [   0.0056458315812051,  0.0214790664613247,  0.0204800330102444 ]
  - [   0.0056334212422371,  0.0214767977595329,  0.0204949658364058 ]
  - [   0.0056415586732328,  0.0214808434247971,  0.0204923395067453 ]
  - [   0.0049648247659206, -0.0196089837700129, -0.0144187118858099 ]
  - [   0.0044723376631737, -0.0190143268555403, -0.0142640173435211 ]
  - [   0.0047063082456589, -0.0184072852134705, -0.0144672039896250 ]
  - [   0.0045722499489784, -0.0188763439655304, -0.0144930817186832 ]
  - [   0.0045689847320318, -0.0189408361911774, -0.0144411809742451 ]
  - [   0.0045634042471647, -0.0189419779926538, -0.0144509989768267 ]
  - [   0.0045686382800341, -0.0189406909048557, -0.0144608430564404 ]
  - [   0.0045676957815886, -0.0189395621418953, -0.0144450664520264 ]
  - [  -0.0121644353494048, -0.0300302337855101, -0.0099714873358607 ]
  - [  -0.0126799400895834, -0.0298692733049393, -0.0101502193138003 ]
  - [  -0.0124614927917719, -0.0298017580062151, -0.0101330727338791 ]
  - [  -0.0124611584469676, -0.0297757238149643, -0.0101685011759400 ]
  - [  -0.0123848104849458, -0.0297389999032021, -0.0100471237674356 ]
  - [  -0.0125462310388684, -0.0298348255455494, -0.0101625677198172 ]
  - [  -0.0124634867534041, -0.0298084728419781, -0.0101547501981258 ]
  - [  -0.0124641275033355, -0.0298321843147278, -0.0101587716490030 ]
  - [   0.0020501436665654, -0.0011500855907798,  0.0118572749197483 ]
  - [   0.0021427934989333, -0.0009169904515147,  0.0115024978294969 ]
  - [   0.0021900990977883, -0.0010104635730386,  0.0113850161433220 ]
  - [   0.0022313883528113, -0.0008572088554502,  0.0115775447338820 ]
  - [   0.0022001159377396, -0.0008675586432219,  0.0116148162633181 ]
  - [   0.0022001760080457, -0.0009657074697316,  0.0113842766731977 ]
  - [   0.0021358500234783, -0.0008893674239516,  0.0114464657381177 ]
  - [   0.0020563867874444, -0.0010618441738188,  0.0115366447716951 ]
  - [  -0.0046805851161480,  0.0210234634578228,  0.0114491805434227 ]
  - [  -0.0046793678775430,  0.0210244543850422,  0.0114518795162439 ]
  - [  -0.0046827439218760,  0.0210397969931364,  0.0114807896316051 ]
  - [  -0.0046800025738776,  0.0210177209228277,  0.0114452457055449 ]
  - [  -0.0046652480959892,  0.0210133455693722,  0.0115123335272074 ]
  - [  -0.0046483562327921,  0.0211271587759256,  0.0115053569898009 ]
  - [  -0.0041720215231180,  0.0203368347138166,  0.0118252905085683 ]
  - [  -0.0047696540132165,  0.0210642833262682,  0.0113980071619153 ]
  - [  -0.0028133243322372, -0.0049342410638928, -0.0074435584247112 ]
  - [  -0.0025455802679062, -0.0049007227644324, -0.0074499957263470 ]
  - [  -0.0031206533312798, -0.0048668761737645, -0.0074319243431091 ]
  - [  -0.0026072785258293, -0.0048937564715743, -0.0073227807879448 ]
  - [  -0.0026023052632809, -0.0048912353813648, -0.0074613913893700 ]
  - [  -0.0026539117097855, -0.0048634316772223, -0.0074389092624187 ]
  - [  -0.0027574077248573, -0.0047737481072545, -0.0076633729040623 ]
  - [  -0.0026228651404381, -0.0048450659960508, -0.0074238032102585 ]
  - [   0.0039646732620895,  0.0024151531979442,  0.0065208990126848 ]
  - [   0.0039812317118049,  0.0023642461746931,  0.0066053885966539 ]
  - [   0.0040081669576466,  0.0023877173662186,  0.0066398046910763 ]
  - [   0.0039661941118538,  0.0023722965270281,  0.0065689161419868 ]
  - [   0.0033465782180429,  0.0023482535034418,  0.0068459901958704 ]
  - [   0.0038666017353535,  0.0024226903915405,  0.0067433137446642 ]
  - [   0.0039626583456993,  0.0022837072610855,  0.0066435430198908 ]
  - [   0.0039669214747846,  0.0023728702217340,  0.0066188797354698 ]
  - [   0.0154819712042809, -0.0056267045438290, -0.0068103708326817 ]
  - [   0.0136366635560989, -0.0085443295538425, -0.0041889250278473 ]
  - [   0.0130861308425665, -0.0085750613361597, -0.0042298156768084 ]
  - [   0.0130649339407682, -0.0087304506450891, -0.0043028574436903 ]
  - [   0.0131497858092189, -0.0084467418491840, -0.0042599271982908 ]
  - [   0.0131375305354595, -0.0084523111581802, -0.0042802542448044 ]
  - [   0.0131498370319605, -0.0084427986294031, -0.0042313225567341 ]
  - [   0.0131279574707150, -0.0084441117942333, -0.0042339209467173 ]
  - [   0.0055495458655059,  0.0050201267004013, -0.0071147549897432 ]
  - [   0.0055623431690037,  0.0050181970000267, -0.0070590088143945 ]
  - [   0.0055453306995332,  0.0050174035131931, -0.0070873592048883 ]
  - [   0.0055549498647451,  0.0050258077681065, -0.0070912307128310 ]
  - [   0.0092239975929260,  0.0066212937235832, -0.0054451506584883 ]
  - [   0.0083713587373495,  0.0036486983299255, -0.0081211961805820 ]
  - [   0.0054750144481659,  0.0051353722810745, -0.0070246309041977 ]
  - [   0.0055145150981843,  0.0050852000713348, -0.0070816986262798 ]
  - [  -0.0087477136403322,  0.0254962183535099, -0.0043020229786634 ]
  - [  -0.0087837353348732,  0.0254261419177055, -0.0046544801443815 ]
  - [  -0.0087833814322948,  0.0254796743392944, -0.0046140328049660 ]
  - [  -0.0087942732498050,  0.0254658907651901, -0.0045654494315386 ]
  - [  -0.0087274331599474,  0.0254760030657053, -0.0044113732874393 ]
  - [  -0.0090199373662472,  0.0254274681210518, -0.0043389629572630 ]
  - [  -0.0087837083265185,  0.0254566520452499, -0.0045988783240318 ]
  - [  -0.0088222315534949,  0.0254145376384258, -0.0045841038227081 ]
  - [  -0.0089422520250082, -0.0052385106682777,  0.0085034072399139 ]
  - [  -0.0089302305132151, -0.0052321888506413,  0.0085307843983173 ]
  - [  -0.0089139482006431, -0.0052477195858955,  0.0084996186196804 ]
  - [  -0.0089420583099127, -0.0052391290664673,  0.0085259974002838 ]
  - [  -0.0082161435857415, -0.0044002272188663,  0.0066737718880177 ]
  - [  -0.0089148245751858, -0.0053142346441746,  0.0085120275616646 ]
  - [  -0.0089353658258915, -0.0053199753165245,  0.0084632150828838 ]
  - [  -0.0089183282107115, -0.0052302703261375,  0.0085351765155792 ]
  - [   0.0050250142812729, -0.0079342275857925, -0.0117877647280693 ]
  - [   0.0066330619156361, -0.0058869533240795, -0.0084737017750740 ]
  - [   0.0024835951626301, -0.0071890018880367, -0.0105145052075386 ]
  - [   0.0024376250803471, -0.0069953761994839, -0.0106108263134956 ]
  - [   0.0025279000401497, -0.0070807971060276, -0.0106162168085575 ]
  - [   0.0024991333484650, -0.0070741958916187, -0.0106761530041695 ]
  - [   0.0025181546807289, -0.0070925056934357, -0.0106289908289909 ]
  - [   0.0025208033621311, -0.0070850737392902, -0.0106341540813446 ]
- atom:    1
  displacement:
    [  -0.0100000000000000,  0.0000000000000000,  0.0000000000000000 ]
  forces:
  - [   0.0221893265843391,  0.0242608506232500,  0.0195733550935984 ]
  - [   0.0053563583642244,  0.0215372312813997,  0.0204539224505424 ]
  - [   0.0056039290502667,  0.0214785132557154,  0.0205151494592428 ]
  - [   0.0055719683878124,  0.0214937366545200,  0.0205071475356817 ]
  - [   0.0056424150243402,  0.0214791782200336,  0.0205058977007866 ]
  - [   0.0056276498362422,  0.0214807856827974,  0.0205050483345985 ]
  - [   0.0056402012705803,  0.0214842129498720,  0.0204914677888155 ]
  - [   0.0056342324241996,  0.0214811339974403,  0.0204941313713789 ]
  - [   0.0041616652160883, -0.0182695239782333, -0.0144740641117096 ]
  - [   0.0046526771038771, -0.0188721735030413, -0.0146280378103256 ]
  - [   0.0044183768332005, -0.0194837749004364, -0.0144265480339527 ]
  - [   0.0045601911842823, -0.0190104730427265, -0.0143984537571669 ]
  - [   0.0045614801347256, -0.0189426429569721, -0.0144534837454557 ]
  - [   0.0045682266354561, -0.0189399532973766, -0.0144443213939667 ]
  - [   0.0045619029551744, -0.0189430266618729, -0.0144344083964825 ]
  - [   0.0045628864318132, -0.0189436133950949, -0.0144512709230185 ]
  - [  -0.0127678103744984, -0.0296082142740488, -0.0103445565328002 ]
  - [  -0.0122569007799029, -0.0297697819769382, -0.0101604582741857 ]
  - [  -0.0124721322208643, -0.0298433136194944, -0.0101786246523261 ]
  - [  -0.0124706793576479, -0.0298683121800423, -0.0101435212418437 ]
  - [  -0.0125490054488182, -0.0299072545021772, -0.0102634038776159 ]
  - [  -0.0123869301751256, -0.0298095829784870, -0.0101473676040769 ]
  - [  -0.0124695487320423, -0.0298347901552916, -0.0101573504507542 ]
  - [  -0.0124687692150474, -0.0298103298991919, -0.0101516060531139 ]
  - [   0.0022377707064152, -0.0007146596908569,  0.0111512858420610 ]
  - [   0.0021438659168780, -0.0009499401785433,  0.0115072121843696 ]
  - [   0.0020937491208315, -0.0008592559024692,  0.0116226430982351 ]
  - [   0.0020544156432152, -0.0010116761550307,  0.0114314071834087 ]
  - [   0.0020856326445937, -0.0009999051690102,  0.0113982325419784 ]
  - [   0.0020864121615887, -0.0009015137329698,  0.0116262650117278 ]
  - [   0.0021511712111533, -0.0009802635759115,  0.0115669593214989 ]
  - [   0.0022328719496727, -0.0008060978725553,  0.0114729711785913 ]
  - [  -0.0046825860626996,  0.0210209712386131,  0.0114539377391338 ]
  - [  -0.0046836882829666,  0.0210183449089527,  0.0114511959254742 ]
  - [  -0.0046826186589897,  0.0210018474608660,  0.0114218425005674 ]
  - [  -0.0046843071468174,  0.0210233852267265,  0.0114588784053922 ]
  - [  -0.0046983286738396,  0.0210322905331850,  0.0113914329558611 ]
  - [  -0.0047133648768067,  0.0209184065461159,  0.0113999638706446 ]
  - [  -0.0051994547247887,  0.0217200051993132,  0.0110716540366411 ]
  - [  -0.0045966301113367,  0.0209798328578472,  0.0115034952759743 ]
  - [  -0.0024957507848740, -0.0047864401713014, -0.0074102431535721 ]
  - [  -0.0027672313153744, -0.0048193861730397, -0.0074034892022610 ]
  - [  -0.0021925568580627, -0.0048649623058736, -0.0074306167662144 ]
  - [  -0.0026995204389095, -0.0048330295830965, -0.0075454972684383 ]
  - [  -0.0027084313333035, -0.0048308493569493, -0.0073930360376835 ]
  - [  -0.0026532597839832, -0.0048635387793183, -0.0074255950748920 ]
  - [  -0.0025555193424225, -0.0049527967348695, -0.0071916282176971 ]
  - [  -0.0026902034878731, -0.0048817265778780, -0.0074324756860733 ]
  - [   0.0039685266092420,  0.0023542372509837,  0.0066998600959778 ]
  - [   0.0039505204185843,  0.0024052904918790,  0.0066147968173027 ]
  - [   0.0039257057942450,  0.0023793717846274,  0.0065800081938505 ]
  - [   0.0039703771471977,  0.0024001570418477,  0.0066602472215891 ]
  - [   0.0045842248946428,  0.0024328753352165,  0.0063939355313778 ]
  - [   0.0040721874684095,  0.0023528523743153,  0.0064903125166893 ]
  - [   0.0039722472429276,  0.0024842899292707,  0.0065781529992819 ]
  - [   0.0039658723399043,  0.0023982487618923,  0.0066033396869898 ]
  - [   0.0107890721410513, -0.0113171227276325, -0.0016159098595381 ]
  - [   0.0126580595970154, -0.0083358511328697, -0.0042776148766279 ]
  - [   0.0131980702280998, -0.0082971714437008, -0.0042394753545523 ]
  - [   0.0132155511528254, -0.0081376191228628, -0.0041692499071360 ]
  - [   0.0131333330646157, -0.0084242783486843, -0.0042122788727283 ]
  - [   0.0131468493491411, -0.0084196459501982, -0.0041912607848644 ]
  - [   0.0131335221230984, -0.0084302946925163, -0.0042421612888575 ]
  - [   0.0131575446575880, -0.0084286965429783, -0.0042380262166262 ]
  - [   0.0055519766174257,  0.0050225481390953, -0.0070710796862841 ]
  - [   0.0055393641814590,  0.0050271227955818, -0.0071273669600487 ]
  - [   0.0055542048066854,  0.0050222761929035, -0.0070993853732944 ]
  - [   0.0055450405925512,  0.0050139687955379, -0.0070961685851216 ]
  - [   0.0017454742919654,  0.0033584944903851, -0.0088391620665789 ]