# Thermal properties / unit cell (natom)

unit:
  temperature:   K
  free_energy:   kJ/mol
  entropy:       J/K/mol
  heat_capacity: J/K/mol

natom: 12   
cutoff_frequency: 0.00000
num_modes: 124416
num_integrated_modes: 124415

zero_point_energy:      29.1770905

thermal_properties:
- temperature:         0.0000000
  free_energy:        29.1770905
  entropy:             0.0000000
  heat_capacity:       0.0000000
  energy:             29.1770905

- temperature:        10.0000000
  free_energy:        29.1703102
  entropy:             2.7031690
  heat_capacity:       8.6489269
  energy:             29.1973419

- temperature:        20.0000000
  free_energy:        29.0709061
  entropy:            19.7740747
  heat_capacity:      47.9510036
  energy:             29.4663876

- temperature:        30.0000000
  free_energy:        28.7410259
  entropy:            47.0512551
  heat_capacity:      87.5771410
  energy:             30.1525636

- temperature:        40.0000000
  free_energy:        28.1234032
  entropy:            76.4641354
  heat_capacity:     116.7956546
  energy:             31.1819686

- temperature:        50.0000000
  free_energy:        27.2148035
  entropy:           105.0294306
  heat_capacity:     139.2882839
  energy:             32.4662750

- temperature:        60.0000000
  free_energy:        26.0277059
  entropy:           132.1434786
  heat_capacity:     158.2843678
  energy:             33.9563146

- temperature:        70.0000000
  free_energy:        24.5767101
  entropy:           157.8262720
  heat_capacity:     175.0290247
  energy:             35.6245492

- temperature:        80.0000000
  free_energy:        22.8755849
  entropy:           182.1869086
  heat_capacity:     189.8606930
  energy:             37.4505376

- temperature:        90.0000000
  free_energy:        20.9370657
  entropy:           205.3187925
  heat_capacity:     202.8913136
  energy:             39.4157570

- temperature:       100.0000000
  free_energy:        18.7730543
  entropy:           227.2968344
  heat_capacity:     214.2355869
  energy:             41.5027378

- temperature:       110.0000000
  free_energy:        16.3947539
  entropy:           248.1873269
  heat_capacity:     224.0479726
  energy:             43.6953599

- temperature:       120.0000000
  free_energy:        13.8127210
  entropy:           268.0538536
  heat_capacity:     232.5062488
  energy:             45.9791834

- temperature:       130.0000000
  free_energy:        11.0368808
  entropy:           286.9591708
  heat_capacity:     239.7905535
  energy:             48.3415730

- temperature:       140.0000000
  free_energy:         8.0765354
  entropy:           304.9650726
  heat_capacity:     246.0695634
  energy:             50.7716456

- temperature:       150.0000000
  free_energy:         4.9403769
  entropy:           322.1316024
  heat_capacity:     251.4938101
  energy:             53.2601173

- temperature:       160.0000000
  free_energy:         1.6365093
  entropy:           338.5162518
  heat_capacity:     256.1937414
  energy:             55.7991095

- temperature:       170.0000000
  free_energy:        -1.8275234
  entropy:           354.1733720
  heat_capacity:     260.2804050
  energy:             58.3819499

- temperature:       180.0000000
  free_energy:        -5.4447030
  entropy:           369.1538333
  heat_capacity:     263.8473514
  energy:             61.0029869

- temperature:       190.0000000
  free_energy:        -9.2085024
  entropy:           383.5048926
  heat_capacity:     266.9729481
  energy:             63.6574271

- temperature:       200.0000000
  free_energy:       -13.1128488
  entropy:           397.2702153
  heat_capacity:     269.7226828
  energy:             66.3411942

- temperature:       210.0000000
  free_energy:       -17.1520887
  entropy:           410.4899997
  heat_capacity:     272.1512638
  energy:             69.0508113

- temperature:       220.0000000
  free_energy:       -21.3209538
  entropy:           423.2011640
  heat_capacity:     274.3044459
  energy:             71.7833023

- temperature:       230.0000000
  free_energy:       -25.6145297
  entropy:           435.4375670
  heat_capacity:     276.2205766
  energy:             74.5361107

- temperature:       240.0000000
  free_energy:       -30.0282263
  entropy:           447.2302415
  heat_capacity:     277.9318838
  energy:             77.3070317

- temperature:       250.0000000
  free_energy:       -34.5577505
  entropy:           458.6076287
  heat_capacity:     279.4655382
  energy:             80.0941567

- temperature:       260.0000000
  free_energy:       -39.1990817
  entropy:           469.5958039
  heat_capacity:     280.8445260
  energy:             82.8958273

- temperature:       270.0000000
  free_energy:       -43.9484492
  entropy:           480.2186896
  heat_capacity:     282.0883628
  energy:             85.7105970

- temperature:       280.0000000
  free_energy:       -48.8023113
  entropy:           490.4982537
  heat_capacity:     283.2136781
  energy:             88.5371997

- temperature:       290.0000000
  free_energy:       -53.7573373
  entropy:           500.4546913
  heat_capacity:     284.2346942
  energy:             91.3745231

- temperature:       300.0000000
  free_energy:       -58.8103902
  entropy:           510.1065900
  heat_capacity:     285.1636187
  energy:             94.2215868

- temperature:       310.0000000
  free_energy:       -63.9585113
  entropy:           519.4710806
  heat_capacity:     286.0109676
  energy:             97.0775237

- temperature:       320.0000000
  free_energy:       -69.1989066
  entropy:           528.5639727
  heat_capacity:     286.7858312
  energy:             99.9415647

- temperature:       330.0000000
  free_energy:       -74.5289342
  entropy:           537.3998768
  heat_capacity:     287.4960943
  energy:            102.8130251

- temperature:       340.0000000
  free_energy:       -79.9460927
  entropy:           545.9923144
  heat_capacity:     288.1486190
  energy:            105.6912942

- temperature:       350.0000000
  free_energy:       -85.4480108
  entropy:           554.3538169
  heat_capacity:     288.7493961
  energy:            108.5758251

- temperature:       360.0000000
  free_energy:       -91.0324381
  entropy:           562.4960147
  heat_capacity:     289.3036721
  energy:            111.4661272

- temperature:       370.0000000
  free_energy:       -96.6972362
  entropy:           570.4297167
  heat_capacity:     289.8160558
  energy:            114.3617590

- temperature:       380.0000000
  free_energy:      -102.4403711
  entropy:           578.1649824
  heat_capacity:     290.2906073
  energy:            117.2623223

- temperature:       390.0000000
  free_energy:      -108.2599057
  entropy:           585.7111865
  heat_capacity:     290.7309132
  energy:            120.1674570

- temperature:       400.0000000
  free_energy:      -114.1539938
  entropy:           593.0770770
  heat_capacity:     291.1401508
  energy:            123.0768370

- temperature:       410.0000000
  free_energy:      -120.1208735
  entropy:           600.2708279
  heat_capacity:     291.5211416
  energy:            125.9901659

- temperature:       420.0000000
  free_energy:      -126.1588621
  entropy:           607.3000861
  heat_capacity:     291.8763980
  energy:            128.9071741

- temperature:       430.0000000
  free_energy:      -132.2663509
  entropy:           614.1720150
  heat_capacity:     292.2081620
  energy:            131.8276156

- temperature:       440.0000000
  free_energy:      -138.4418004
  entropy:           620.8933321
  heat_capacity:     292.5184396
  energy:            134.7512657

- temperature:       450.0000000
  free_energy:      -144.6837365
  entropy:           627.4703451
  heat_capacity:     292.8090291
  energy:            137.6779188

- temperature:       460.0000000
  free_energy:      -150.9907461
  entropy:           633.9089830
  heat_capacity:     293.0815463
  energy:            140.6073861

- temperature:       470.0000000
  free_energy:      -157.3614736
  entropy:           640.2148253
  heat_capacity:     293.3374463
  energy:            143.5394943

- temperature:       480.0000000
  free_energy:      -163.7946175
  entropy:           646.3931281
  heat_capacity:     293.5780418
  energy:            146.4740840

- temperature:       490.0000000
  free_energy:      -170.2889276
  entropy:           652.4488483
  heat_capacity:     293.8045195
  energy:            149.4110081

- temperature:       500.0000000
  free_energy:      -176.8432015
  entropy:           658.3866648
  heat_capacity:     294.0179543
  energy:            152.3501309

- temperature:       510.0000000
  free_energy:      -183.4562826
  entropy:           664.2109992
  heat_capacity:     294.2193214
  energy:            155.2913270

- temperature:       520.0000000
  free_energy:      -190.1270572
  entropy:           669.9260332
  heat_capacity:     294.4095072
  energy:            158.2344801

- temperature:       530.0000000
  free_energy:      -196.8544522
  entropy:           675.5357258
  heat_capacity:     294.5893188
  energy:            161.1794825

- temperature:       540.0000000
  free_energy:      -203.6374331
  entropy:           681.0438286
  heat_capacity:     294.7594923
  energy:            164.1262343

- temperature:       550.0000000
  free_energy:      -210.4750020
  entropy:           686.4538991
  heat_capacity:     294.9207001
  energy:            167.0746425

- temperature:       560.0000000
  free_energy:      -217.3661956
  entropy:           691.7693144
  heat_capacity:     295.0735571
  energy:            170.0246205

- temperature:       570.0000000
  free_energy:      -224.3100834
  entropy:           696.9932827
  heat_capacity:     295.2186271
  energy:            172.9760877

- temperature:       580.0000000
  free_energy:      -231.3057666
  entropy:           702.1288541
  heat_capacity:     295.3564270
  energy:            175.9289688

- temperature:       590.0000000
  free_energy:      -238.3523756
  entropy:           707.1789308
  heat_capacity:     295.4874320
  energy:            178.8831936

- temperature:       600.0000000
  free_energy:      -245.4490694
  entropy:           712.1462762
  heat_capacity:     295.6120792
  energy:            181.8386963

- temperature:       610.0000000
  free_energy:      -252.5950341
  entropy:           717.0335237
  heat_capacity:     295.7307714
  energy:            184.7954153

- temperature:       620.0000000
  free_energy:      -259.7894813
  entropy:           721.8431845
  heat_capacity:     295.8438801
  energy:            187.7532931

- temperature:       630.0000000
  free_energy:      -267.0316472
  entropy:           726.5776550
  heat_capacity:     295.9517483
  energy:            190.7122755

- temperature:       640.0000000
  free_energy:      -274.3207914
  entropy:           731.2392235
  heat_capacity:     296.0546934
  energy:            193.6723117

- temperature:       650.0000000
  free_energy:      -281.6561959
  entropy:           735.8300767
  heat_capacity:     296.1530091
  energy:            196.6333539

- temperature:       660.0000000
  free_energy:      -289.0371642
  entropy:           740.3523053
  heat_capacity:     296.2469677
  energy:            199.5953573

- temperature:       670.0000000
  free_energy:      -296.4630200
  entropy:           744.8079098
  heat_capacity:     296.3368217
  energy:            202.5582796

- temperature:       680.0000000
  free_energy:      -303.9331067
  entropy:           749.1988052
  heat_capacity:     296.4228059
  energy:            205.5220809

- temperature:       690.0000000
  free_energy:      -311.4467865
  entropy:           753.5268261
  heat_capacity:     296.5051384
  energy:            208.4867235

- temperature:       700.0000000
  free_energy:      -319.0034395
  entropy:           757.7937309
  heat_capacity:     296.5840223
  energy:            211.4521721

- temperature:       710.0000000
  free_energy:      -326.6024630
  entropy:           762.0012058
  heat_capacity:     296.6596469
  energy:            214.4183931

- temperature:       720.0000000
  free_energy:      -334.2432709
  entropy:           766.1508691
  heat_capacity:     296.7321885
  energy:            217.3853548

- temperature:       730.0000000
  free_energy:      -341.9252929
  entropy:           770.2442741
  heat_capacity:     296.8018120
  energy:            220.3530272

- temperature:       740.0000000
  free_energy:      -349.6479739
  entropy:           774.2829131
  heat_capacity:     296.8686712
  energy:            223.3213818

- temperature:       750.0000000
  free_energy:      -357.4107734
  entropy:           778.2682203
  heat_capacity:     296.9329100
  energy:            226.2903919

- temperature:       760.0000000
  free_energy:      -365.2131651
  entropy:           782.2015748
  heat_capacity:     296.9946632
  energy:            229.2600317

- temperature:       770.0000000
  free_energy:      -373.0546361
  entropy:           786.0843031
  heat_capacity:     297.0540569
  energy:            232.2302773

- temperature:       780.0000000
  free_energy:      -380.9346867
  entropy:           789.9176821
  heat_capacity:     297.1112095
  energy:            235.2011054

- temperature:       790.0000000
  free_energy:      -388.8528294
  entropy:           793.7029414
  heat_capacity:     297.1662319
  energy:            238.1724943

- temperature:       800.0000000
  free_energy:      -396.8085891
  entropy:           797.4412654
  heat_capacity:     297.2192285
  energy:            241.1444233

- temperature:       810.0000000
  free_energy:      -404.8015021
  entropy:           801.1337957
  heat_capacity:     297.2702971
  energy:            244.1168725

- temperature:       820.0000000
  free_energy:      -412.8311160
  entropy:           804.7816331
  heat_capacity:     297.3195300
  energy:            247.0898231

- temperature:       830.0000000
  free_energy:      -420.8969893
  entropy:           808.3858392
  heat_capacity:     297.3670137
  energy:            250.0632573

- temperature:       840.0000000
  free_energy:      -428.9986908
  entropy:           811.9474388
  heat_capacity:     297.4128300
  energy:            253.0371578

- temperature:       850.0000000
  free_energy:      -437.1357993
  entropy:           815.4674210
  heat_capacity:     297.4570559
  energy:            256.0115086

- temperature:       860.0000000
  free_energy:      -445.3079036
  entropy:           818.9467413
  heat_capacity:     297.4997638
  energy:            258.9862939

- temperature:       870.0000000
  free_energy:      -453.5146017
  entropy:           822.3863226
  heat_capacity:     297.5410224
  energy:            261.9614990

- temperature:       880.0000000
  free_energy:      -461.7555006
  entropy:           825.7870572
  heat_capacity:     297.5808963
  energy:            264.9371097

- temperature:       890.0000000
  free_energy:      -470.0302162
  entropy:           829.1498076
  heat_capacity:     297.6194466
  energy:            267.9131125

- temperature:       900.0000000
  free_energy:      -478.3383729
  entropy:           832.4754082
  heat_capacity:     297.6567311
  energy:            270.8894944

- temperature:       910.0000000
  free_energy:      -486.6796033
  entropy:           835.7646663
  heat_capacity:     297.6928045
  energy:            273.8662431

- temperature:       920.0000000
  free_energy:      -495.0535477
  entropy:           839.0183635
  heat_capacity:     297.7277187
  energy:            276.8433467

- temperature:       930.0000000
  free_energy:      -503.4598545
  entropy:           842.2372562
  heat_capacity:     297.7615225
  energy:            279.8207938

- temperature:       940.0000000
  free_energy:      -511.8981793
  entropy:           845.4220775
  heat_capacity:     297.7942626
  energy:            282.7985736

- temperature:       950.0000000
  free_energy:      -520.3681849
  entropy:           848.5735374
  heat_capacity:     297.8259829
  energy:            285.7766756

- temperature:       960.0000000
  free_energy:      -528.8695411
  entropy:           851.6923240
  heat_capacity:     297.8567254
  energy:            288.7550900

- temperature:       970.0000000
  free_energy:      -537.4019247
  entropy:           854.7791048
  heat_capacity:     297.8865297
  energy:            291.7338070

- temperature:       980.0000000
  free_energy:      -545.9650187
  entropy:           857.8345268
  heat_capacity:     297.9154335
  energy:            294.7128176

- temperature:       990.0000000
  free_energy:      -554.5585128
  entropy:           860.8592177
  heat_capacity:     297.9434727
  energy:            297.6921128

- temperature:      1000.0000000
  free_energy:      -563.1821026
  entropy:           863.8537869
  heat_capacity:     297.9706813
  energy:            300.6716842
