# Thermal properties / unit cell (natom)

unit:
  temperature:   K
  free_energy:   kJ/mol
  entropy:       J/K/mol
  heat_capacity: J/K/mol

natom: 6    
cutoff_frequency: 0.00000
num_modes: 171360
num_integrated_modes: 171359

zero_point_energy:      19.2132447

thermal_properties:
- temperature:         0.0000000
  free_energy:        19.2132447
  entropy:             0.0000000
  heat_capacity:       0.0000000
  energy:             19.2132447

- temperature:        10.0000000
  free_energy:        19.2120640
  entropy:             0.4151077
  heat_capacity:       1.2857583
  energy:             19.2162151

- temperature:        20.0000000
  free_energy:        19.1946569
  entropy:             3.8301714
  heat_capacity:      11.4489917
  energy:             19.2712603

- temperature:        30.0000000
  free_energy:        19.1215907
  entropy:            11.2888354
  heat_capacity:      26.3070681
  energy:             19.4602558

- temperature:        40.0000000
  free_energy:        18.9624841
  entropy:            20.7101304
  heat_capacity:      39.4198582
  energy:             19.7908893

- temperature:        50.0000000
  free_energy:        18.7055059
  entropy:            30.7235587
  heat_capacity:      50.4582202
  energy:             20.2416838

- temperature:        60.0000000
  free_energy:        18.3478504
  entropy:            40.7959287
  heat_capacity:      60.1488873
  energy:             20.7956062

- temperature:        70.0000000
  free_energy:        17.8900350
  entropy:            50.7372716
  heat_capacity:      68.9248439
  energy:             21.4416440

- temperature:        80.0000000
  free_energy:        17.3337963
  entropy:            60.4722760
  heat_capacity:      76.9397689
  energy:             22.1715783

- temperature:        90.0000000
  free_energy:        16.6814073
  entropy:            69.9623649
  heat_capacity:      84.2283598
  energy:             22.9780201

- temperature:       100.0000000
  free_energy:        15.9354476
  entropy:            79.1831203
  heat_capacity:      90.8016995
  energy:             23.8537597

- temperature:       110.0000000
  free_energy:        15.0986965
  entropy:            88.1186196
  heat_capacity:      96.6828235
  energy:             24.7917447

- temperature:       120.0000000
  free_energy:        14.1740567
  entropy:            96.7598837
  heat_capacity:     101.9123550
  energy:             25.7852428

- temperature:       130.0000000
  free_energy:        13.1644902
  entropy:           105.1038964
  heat_capacity:     106.5435771
  energy:             26.8279967

- temperature:       140.0000000
  free_energy:        12.0729638
  entropy:           113.1525266
  heat_capacity:     110.6357852
  energy:             27.9143175

- temperature:       150.0000000
  free_energy:        10.9024058
  entropy:           120.9114013
  heat_capacity:     114.2489649
  energy:             29.0391160

- temperature:       160.0000000
  free_energy:         9.6556740
  entropy:           128.3888582
  heat_capacity:     117.4403423
  energy:             30.1978914

- temperature:       170.0000000
  free_energy:         8.3355330
  entropy:           135.5950574
  heat_capacity:     120.2624973
  energy:             31.3866927

- temperature:       180.0000000
  free_energy:         6.9446396
  entropy:           142.5412708
  heat_capacity:     122.7625679
  energy:             32.6020683

- temperature:       190.0000000
  free_energy:         5.4855347
  entropy:           149.2393418
  heat_capacity:     124.9821340
  energy:             33.8410097

- temperature:       200.0000000
  free_energy:         3.9606398
  entropy:           155.7012884
  heat_capacity:     126.9574865
  energy:             35.1008975

- temperature:       210.0000000
  free_energy:         2.3722563
  entropy:           161.9390210
  heat_capacity:     128.7200868
  energy:             36.3794507

- temperature:       220.0000000
  free_energy:         0.7225680
  entropy:           167.9641500
  heat_capacity:     130.2970997
  energy:             37.6746810

- temperature:       230.0000000
  free_energy:        -0.9863554
  entropy:           173.7878600
  heat_capacity:     131.7119308
  energy:             38.9848525

- temperature:       240.0000000
  free_energy:        -2.7525535
  entropy:           179.4208331
  heat_capacity:     132.9847311
  energy:             40.3084465

- temperature:       250.0000000
  free_energy:        -4.5741701
  entropy:           184.8732073
  heat_capacity:     134.1328547
  energy:             41.6441317

- temperature:       260.0000000
  free_energy:        -6.4494476
  entropy:           190.1545603
  heat_capacity:     135.1712608
  energy:             42.9907381

- temperature:       270.0000000
  free_energy:        -8.3767213
  entropy:           195.2739105
  heat_capacity:     136.1128636
  energy:             44.3472345

- temperature:       280.0000000
  free_energy:       -10.3544141
  entropy:           200.2397292
  heat_capacity:     136.9688328
  energy:             45.7127101

- temperature:       290.0000000
  free_energy:       -12.3810307
  entropy:           205.0599614
  heat_capacity:     137.7488495
  energy:             47.0863581

- temperature:       300.0000000
  free_energy:       -14.4551529
  entropy:           209.7420498
  heat_capacity:     138.4613237
  energy:             48.4674620

- temperature:       310.0000000
  free_energy:       -16.5754345
  entropy:           214.2929627
  heat_capacity:     139.1135792
  energy:             49.8553840

- temperature:       320.0000000
  free_energy:       -18.7405967
  entropy:           218.7192218
  heat_capacity:     139.7120095
  energy:             51.2495543

- temperature:       330.0000000
  free_energy:       -20.9494238
  entropy:           223.0269311
  heat_capacity:     140.2622097
  energy:             52.6494634

- temperature:       340.0000000
  free_energy:       -23.2007592
  entropy:           227.2218041
  heat_capacity:     140.7690893
  energy:             54.0546542

- temperature:       350.0000000
  free_energy:       -25.4935016
  entropy:           231.3091912
  heat_capacity:     141.2369663
  energy:             55.4647153

- temperature:       360.0000000
  free_energy:       -27.8266015
  entropy:           235.2941048
  heat_capacity:     141.6696483
  energy:             56.8792762

- temperature:       370.0000000
  free_energy:       -30.1990578
  entropy:           239.1812434
  heat_capacity:     142.0705010
  energy:             58.2980022

- temperature:       380.0000000
  free_energy:       -32.6099152
  entropy:           242.9750139
  heat_capacity:     142.4425066
  energy:             59.7205901

- temperature:       390.0000000
  free_energy:       -35.0582607
  entropy:           246.6795532
  heat_capacity:     142.7883137
  energy:             61.1467650

- temperature:       400.0000000
  free_energy:       -37.5432218
  entropy:           250.2987468
  heat_capacity:     143.1102801
  energy:             62.5762770

- temperature:       410.0000000
  free_energy:       -40.0639634
  entropy:           253.8362477
  heat_capacity:     143.4105093
  energy:             64.0088982

- temperature:       420.0000000
  free_energy:       -42.6196859
  entropy:           257.2954926
  heat_capacity:     143.6908821
  energy:             65.4444210

- temperature:       430.0000000
  free_energy:       -45.2096232
  entropy:           260.6797174
  heat_capacity:     143.9530837
  energy:             66.8826553

- temperature:       440.0000000
  free_energy:       -47.8330404
  entropy:           263.9919716
  heat_capacity:     144.1986274
  energy:             68.3234271

- temperature:       450.0000000
  free_energy:       -50.4892323
  entropy:           267.2351315
  heat_capacity:     144.4288745
  energy:             69.7665769

- temperature:       460.0000000
  free_energy:       -53.1775218
  entropy:           270.4119119
  heat_capacity:     144.6450520
  energy:             71.2119577

- temperature:       470.0000000
  free_energy:       -55.8972578
  entropy:           273.5248778
  heat_capacity:     144.8482683
  energy:             72.6594347

- temperature:       480.0000000
  free_energy:       -58.6478147
  entropy:           276.5764541
  heat_capacity:     145.0395260
  energy:             74.1088833

- temperature:       490.0000000
  free_energy:       -61.4285900
  entropy:           279.5689355
  heat_capacity:     145.2197341
  energy:             75.5601884

- temperature:       500.0000000
  free_energy:       -64.2390037
  entropy:           282.5044951
  heat_capacity:     145.3897176
  energy:             77.0132439

- temperature:       510.0000000
  free_energy:       -67.0784970
  entropy:           285.3851925
  heat_capacity:     145.5502272
  energy:             78.4679512

- temperature:       520.0000000
  free_energy:       -69.9465312
  entropy:           288.2129813
  heat_capacity:     145.7019464
  energy:             79.9242191

- temperature:       530.0000000
  free_energy:       -72.8425865
  entropy:           290.9897158
  heat_capacity:     145.8454990
  energy:             81.3819629

- temperature:       540.0000000
  free_energy:       -75.7661612
  entropy:           293.7171573
  heat_capacity:     145.9814550
  energy:             82.8411038

- temperature:       550.0000000
  free_energy:       -78.7167709
  entropy:           296.3969806
  heat_capacity:     146.1103359
  energy:             84.3015684

- temperature:       560.0000000
  free_energy:       -81.6939474
  entropy:           299.0307784
  heat_capacity:     146.2326198
  energy:             85.7632885

- temperature:       570.0000000
  free_energy:       -84.6972381
  entropy:           301.6200674
  heat_capacity:     146.3487454
  energy:             87.2262003

- temperature:       580.0000000
  free_energy:       -87.7262052
  entropy:           304.1662921
  heat_capacity:     146.4591158
  energy:             88.6902442

- temperature:       590.0000000
  free_energy:       -90.7804250
  entropy:           306.6708299
  heat_capacity:     146.5641020
  energy:             90.1553647

- temperature:       600.0000000
  free_energy:       -93.8594872
  entropy:           309.1349945
  heat_capacity:     146.6640458
  energy:             91.6215095

- temperature:       610.0000000
  free_energy:       -96.9629945
  entropy:           311.5600399
  heat_capacity:     146.7592626
  energy:             93.0886298

- temperature:       620.0000000
  free_energy:      -100.0905616
  entropy:           313.9471638
  heat_capacity:     146.8500436
  energy:             94.5566799

- temperature:       630.0000000
  free_energy:      -103.2418152
  entropy:           316.2975111
  heat_capacity:     146.9366580
  energy:             96.0256168

- temperature:       640.0000000
  free_energy:      -106.4163929
  entropy:           318.6121765
  heat_capacity:     147.0193554
  energy:             97.4954000

- temperature:       650.0000000
  free_energy:      -109.6139433
  entropy:           320.8922075
  heat_capacity:     147.0983667
  energy:             98.9659916

- temperature:       660.0000000
  free_energy:      -112.8341250
  entropy:           323.1386072
  heat_capacity:     147.1739063
  energy:            100.4373558

- temperature:       670.0000000
  free_energy:      -116.0766065
  entropy:           325.3523364
  heat_capacity:     147.2461735
  energy:            101.9094589

- temperature:       680.0000000
  free_energy:      -119.3410659
  entropy:           327.5343160
  heat_capacity:     147.3153533
  energy:            103.3822690

- temperature:       690.0000000
  free_energy:      -122.6271900
  entropy:           329.6854292
  heat_capacity:     147.3816182
  energy:            104.8557562

- temperature:       700.0000000
  free_energy:      -125.9346744
  entropy:           331.8065237
  heat_capacity:     147.4451286
  energy:            106.3298922

- temperature:       710.0000000
  free_energy:      -129.2632231
  entropy:           333.8984129
  heat_capacity:     147.5060343
  energy:            107.8046501

- temperature:       720.0000000
  free_energy:      -132.6125479
  entropy:           335.9618785
  heat_capacity:     147.5644750
  energy:            109.2800046

- temperature:       730.0000000
  free_energy:      -135.9823684
  entropy:           337.9976715
  heat_capacity:     147.6205813
  energy:            110.7559318

- temperature:       740.0000000
  free_energy:      -139.3724115
  entropy:           340.0065141
  heat_capacity:     147.6744751
  energy:            112.2324089

- temperature:       750.0000000
  free_energy:      -142.7824112
  entropy:           341.9891007
  heat_capacity:     147.7262708
  energy:            113.7094143

- temperature:       760.0000000
  free_energy:      -146.2121082
  entropy:           343.9460999
  heat_capacity:     147.7760752
  energy:            115.1869277

- temperature:       770.0000000
  free_energy:      -149.6612500
  entropy:           345.8781553
  heat_capacity:     147.8239887
  energy:            116.6649295

- temperature:       780.0000000
  free_energy:      -153.1295903
  entropy:           347.7858868
  heat_capacity:     147.8701054
  energy:            118.1434015

- temperature:       790.0000000
  free_energy:      -156.6168887
  entropy:           349.6698919
  heat_capacity:     147.9145135
  energy:            119.6223259

- temperature:       800.0000000
  free_energy:      -160.1229109
  entropy:           351.5307466
  heat_capacity:     147.9572961
  energy:            121.1016863

- temperature:       810.0000000
  free_energy:      -163.6474283
  entropy:           353.3690062
  heat_capacity:     147.9985313
  energy:            122.5814667

- temperature:       820.0000000
  free_energy:      -167.1902175
  entropy:           355.1852068
  heat_capacity:     148.0382924
  energy:            124.0616520

- temperature:       830.0000000
  free_energy:      -170.7510606
  entropy:           356.9798657
  heat_capacity:     148.0766485
  energy:            125.5422279

- temperature:       840.0000000
  free_energy:      -174.3297447
  entropy:           358.7534824
  heat_capacity:     148.1136649
  energy:            127.0231805

- temperature:       850.0000000
  free_energy:      -177.9260617
  entropy:           360.5065396
  heat_capacity:     148.1494029
  energy:            128.5044969

- temperature:       860.0000000
  free_energy:      -181.5398085
  entropy:           362.2395035
  heat_capacity:     148.1839206
  energy:            129.9861645

- temperature:       870.0000000
  free_energy:      -185.1707863
  entropy:           363.9528250
  heat_capacity:     148.2172726
  energy:            131.4681714

- temperature:       880.0000000
  free_energy:      -188.8188010
  entropy:           365.6469401
  heat_capacity:     148.2495107
  energy:            132.9505063

- temperature:       890.0000000
  free_energy:      -192.4836625
  entropy:           367.3222704
  heat_capacity:     148.2806837
  energy:            134.4331581

- temperature:       900.0000000
  free_energy:      -196.1651852
  entropy:           368.9792241
  heat_capacity:     148.3108379
  energy:            135.9161165

- temperature:       910.0000000
  free_energy:      -199.8631871
  entropy:           370.6181964
  heat_capacity:     148.3400171
  energy:            137.3993716

- temperature:       920.0000000
  free_energy:      -203.5774904
  entropy:           372.2395698
  heat_capacity:     148.3682627
  energy:            138.8829138

- temperature:       930.0000000
  free_energy:      -207.3079210
  entropy:           373.8437150
  heat_capacity:     148.3956139
  energy:            140.3667339

- temperature:       940.0000000
  free_energy:      -211.0543085
  entropy:           375.4309911
  heat_capacity:     148.4221081
  energy:            141.8508232

- temperature:       950.0000000
  free_energy:      -214.8164858
  entropy:           377.0017464
  heat_capacity:     148.4477805
  energy:            143.3351733

- temperature:       960.0000000
  free_energy:      -218.5942895
  entropy:           378.5563184
  heat_capacity:     148.4726647
  energy:            144.8197762

- temperature:       970.0000000
  free_energy:      -222.3875593
  entropy:           380.0950344
  heat_capacity:     148.4967925
  energy:            146.3046241

- temperature:       980.0000000
  free_energy:      -226.1961384
  entropy:           381.6182122
  heat_capacity:     148.5201942
  energy:            147.7897096

- temperature:       990.0000000
  free_energy:      -230.0198728
  entropy:           383.1261600
  heat_capacity:     148.5428985
  energy:            149.2750256

- temperature:      1000.0000000
  free_energy:      -233.8586118
  entropy:           384.6191771
  heat_capacity:     148.5649328
  energy:            150.7605653
