8
Lattice="4.828606769562615 -0.002016031306494161 0.0014056366887085117 0.0028211704735548173 5.1289192765704295 -3.0031072779496264 -0.0011430157461344184 0.06744186003240334 5.944111610525938" Properties=species:S:1:pos:R:3:forces:R:3 structure_index=0 total_energy=-23.448265075683594 stress="-0.012487092055380344 0.0006161041674204171 0.000306869565974921 0.0006161295459605753 0.011282454244792461 0.0025690216571092606 0.0003069289668928832 0.0025689895264804363 0.011986863799393177" pbc="T T T"
Li       2.25280033       1.76946708       1.79165878       0.00050882       0.00983931      -0.01019006
Li       2.25510458       4.35255123       0.30159608       0.00015881       0.00480828      -0.04035925
Li       4.66649869       0.88355650       0.36500293      -0.00025273      -0.02676889       0.02604858
Li       4.66705457       0.90189115       3.32953916      -0.00125780      -0.00607662       0.01093483
Ga       2.25345164       4.40427094       3.27303691       0.00138174       0.01096636      -0.00199607
Ga       4.66905912       3.46220289      -1.12191506      -0.00197999      -0.00020989       0.01511535
Sn       2.25150738       1.79499019       4.75225690       0.00303474       0.01414105      -0.01522399
Sn       4.66849023       3.44951215       1.82406025      -0.00159361      -0.00669962       0.01567061
16
Lattice="4.159025128695279 -0.012871587342377913 -0.015059461676007798 -2.065662880071414 4.750890357426508 -0.03353238931219047 0.0638622066766097 1.7653919309020334 15.548159093876171" Properties=species:S:1:pos:R:3:forces:R:3 structure_index=1 total_energy=-47.05322265625 stress="-0.021776355803012848 -0.00028478240710683167 -0.00014802518126089126 -0.00028486960218288004 0.006223726086318493 0.0026413279119879007 -0.00014796007599215955 0.002641274593770504 -0.0031974553130567074" pbc="T T T"
Li       2.82943111       2.71708880       2.60193361      -0.00205306      -0.02494439      -0.01372639
Li      -1.30827098       4.47854601       8.19872509       0.00215866       0.03582688      -0.01351092
Li       2.83515950       0.83899972       6.34581749      -0.00106064      -0.00876180       0.01339843
Li      -1.29241193       5.56469501      11.12763916       0.00009766       0.00373280       0.03512533
Li       0.78946066       1.68403160      14.21594066      -0.00022980      -0.00137349       0.00731051
Li       0.74002669       0.70026354       1.69588943       0.00062610      -0.01008417      -0.00352134
Li       2.83917687       3.66825377       5.38111413       0.00171834       0.01241537      -0.00661853
Ga       2.86211605       2.66416529      12.07923430       0.00035864       0.01374046       0.02201829
Ga       0.74612938       3.70725361       0.79664521       0.00055154      -0.01736451      -0.01247630
Ga       0.77732157       3.61495202      10.13979284      -0.00066458      -0.01173354       0.03379694
Ga       0.76372306       2.74818389       7.25205924      -0.00021862      -0.00946495      -0.01697483
Ga       0.75709702       4.55017056       3.47297334      -0.00058502      -0.00469356      -0.03142519
Sn       2.88097670       3.57733476      15.37536615      -0.00297274      -0.01750873       0.03694332
Sn       0.75182402       1.73191670       4.47172874       0.00073692       0.00300930      -0.02682402
Sn       2.84712136       1.68523794       9.16639218       0.00059768       0.01029560       0.00066547
Sn       0.79206821       4.54561679      13.04215066       0.00093891       0.02690875      -0.02418075
12
Lattice="4.129176435862029 0.0017495151692442023 -0.0010726008188924763 -0.0027585449007586607 6.554009253815579 -0.0006206710679846574 0.0022565025461905707 0.001076140036119019 9.07107322351091" Properties=species:S:1:pos:R:3:forces:R:3 structure_index=2 total_energy=-36.97017288208008 stress="-0.005083639640361071 0.00012135512952227145 0.00014456917415373027 0.00012130801769671962 -0.025218764320015907 6.788717291783541e-05 0.00014459287922363728 6.799901166232303e-05 0.0013818724546581507" pbc="T T T"
Li       1.75554232       4.30146443       0.51703723       0.00018827      -0.03395894       0.01935229
Li       1.75890387       1.02474279       6.67270465      -0.00026770      -0.03312825      -0.01711130
Li       3.82120446       2.56277273       2.13760060       0.00012326       0.03515351      -0.01888449
Li       3.82085783       5.84092078       5.05140848      -0.00015538       0.03387045       0.01902249
Ga       1.75713324       0.94215765       0.65666242      -0.00013901       0.02438859      -0.02845127
Ga       1.75729301       4.22056628       6.53498380       0.00013585       0.02316041       0.02388336
Ga       3.82235078       2.64559481       5.19112757      -0.00049916      -0.02480388      -0.02530321
Ga       3.81976427       5.92127917       1.99810128       0.00032545      -0.02449068       0.02412252
Sn       1.75637540       4.27150888       3.52076955       0.00006904      -0.01089545       0.03291919
Sn       1.75774112       0.99374186       3.66892708       0.00028161      -0.00674533      -0.02924245
Sn       3.82162612       5.87054592       8.05436065      -0.00013783       0.01127988       0.03495581
Sn       3.82292372       2.59422145       8.20598746       0.00007559       0.00616970      -0.03526295
5
Lattice="3.8742115542142246 -0.0001033655309280496 -1.3851057602047385 -0.49556369614332035 3.847567146713553 -1.3863948531133476 0.2905317161559186 0.323039238137818 6.945031539543154" Properties=species:S:1:pos:R:3:forces:R:3 structure_index=3 total_energy=-14.913599014282227 stress="-0.01933193765580654 0.008627145551145077 0.028518514707684517 0.00862702913582325 -0.01808302290737629 0.027752945199608803 0.028518404811620712 0.027752883732318878 0.060472335666418076" pbc="T T T"
Ga       2.06173317       3.04504040      -0.82933069      -0.00101676       0.00042515      -0.00099952
Ga       0.37580769       1.12007221       0.55883555       0.00023227      -0.00022233       0.00109452
Ga       2.01767985       0.78066300       5.17100458      -0.00759983      -0.00894596      -0.02248973
Ga       0.70914094       3.70750637       1.50369693       0.00854377       0.00813631       0.02443948
Sn       3.30084891       2.24386352       2.64730945      -0.00015948       0.00060685      -0.00204474
4
Lattice="4.5459505109408544 -0.0005719336289445949 0.002833995989413684 0.0004208482784588436 4.545787716973165 0.0014728539788128783 -0.0021054205650918047 -0.0010798285150894708 4.348988171689677" Properties=species:S:1:pos:R:3:forces:R:3 structure_index=4 total_energy=-13.074115753173828 stress="0.0010102143278345466 -0.0006246002740226686 0.002293777884915471 -0.0006246554548852146 0.0004058951453771442 0.0011958943214267492 0.002293820958584547 0.001195946242660284 -0.0651499480009079" pbc="T T T"
Li       2.23616587       0.54203352       3.26342462       0.00064610       0.00003219       0.00032866
Ga       4.50997014       2.81509362       3.26464349      -0.00102337       0.00145539       0.00247054
Sn       4.51067191       0.54421485       1.09149732      -0.00128157      -0.00287764      -0.00296184
Sn       2.23731019       2.81609375       1.08866777       0.00165884       0.00139005       0.00016263
8
Lattice="4.733933630142386 -0.002649710077205923 0.0034788249497573935 0.005240496056853049 5.021668413205581 -2.8688260010525997 -0.0030853049669721353 -0.016391083896094446 5.78482642496572" Properties=species:S:1:pos:R:3:forces:R:3 structure_index=5 total_energy=-20.48419761657715 stress="0.01891440339386463 0.0027280061040073633 0.002771148458123207 0.0027278424240648746 0.007740858942270279 0.007589579559862614 0.0027710371650755405 0.007589439861476421 -0.00038506078999489546" pbc="T T T"
Li       1.29616681       4.31143418       0.34130916      -0.00073567      -0.02041542       0.03887422
Li       1.29371238       1.89946692       1.72439864      -0.00096052       0.03709883      -0.00436870
Li       3.66332365       3.44585868      -1.15642925      -0.00069551       0.04921659      -0.00023458
Li       3.66050479       1.02746474       0.22718865      -0.00001620      -0.02252911       0.04048118
Li       1.29368043       4.29866405       3.12038138       0.00115197      -0.01180797      -0.03311266
Li       3.65855067       1.01966354       3.22729517       0.00181931      -0.02259339      -0.04537983
Ga       3.66113306       3.50112047       1.73538554       0.00055831      -0.00204556      -0.00091738
Sn       1.29205676       1.82465481       4.61580224      -0.00112168      -0.00692397       0.00465777
10
Lattice="4.003540990523547 -0.005915511586302665 0.0035026896354938006 0.008703428150051472 6.179261992266329 0.003730215261188321 -0.009727918138670725 -0.00408404052819691 9.1801949223548" Properties=species:S:1:pos:R:3:forces:R:3 structure_index=6 total_energy=-31.31021499633789 stress="0.01093444973230362 -0.00016922832583077252 -0.001282012090086937 -0.00016923168732319027 0.0276627279818058 -0.0008142273873090744 -0.0012821893906220794 -0.0008143220329657197 -0.02487885020673275" pbc="T T T"
Li       0.18019609       0.34677774       0.84085896      -0.00069617      -0.01173888       0.03927545
Li       0.17624510       3.43660133       7.34754554       0.00040096      -0.01471886      -0.04173844
Ga       2.18114454       1.62057882       2.53561212      -0.00043652       0.00180790       0.01089320
Ga       2.17509884       1.92195227       8.73679880      -0.00020092       0.02697486       0.02414874
Ga       2.17954336       5.00876134       8.64199480      -0.00027070       0.02874714      -0.02794665
Ga       2.18146524       4.71547931       5.65448793       0.00055194      -0.00171058      -0.00599701
Sn       0.17803867       2.59017583       4.54244361       0.00028320      -0.02531467      -0.01443765
Sn       0.18371007       3.51488401       1.23059640      -0.00013533       0.01291987      -0.01273891
Sn       0.17250120       0.42317346       6.96371046       0.00055675       0.01364986       0.00943125
Sn       0.18326506       5.68204521       3.64498443      -0.00005324      -0.03061664       0.01911002
7
Lattice="4.3566102191209515 0.00519891175886074 1.316659644030338 1.972896651791766 3.8847809416587675 1.3157512747534577 -0.13849916182849428 -0.08313672302710812 8.305631031130122" Properties=species:S:1:pos:R:3:forces:R:3 structure_index=7 total_energy=-20.952123641967773 stress="0.017887163907289505 -0.0007523685926571488 0.00126556190662086 -0.000752427673432976 0.018923208117485046 0.0007098843343555927 0.0012658403720706701 0.0007099180947989225 0.010015868581831455" pbc="T T T"
Li       3.78921087       2.81166471       6.09556179      -0.01504583      -0.00880139       0.04356960
Li       1.29392786       1.27854437       6.48361137      -0.00432356      -0.00258122       0.01464854
Li       0.54940799       0.81977980       1.09410347       0.01365547       0.00842312      -0.04498487
Ga       5.34285211       3.76717695       8.80140849       0.00105740       0.00029966      -0.00387571
Ga       4.12651016       0.34679839       4.99267864      -0.00372312      -0.00248626       0.01442247
Sn       2.16823307       1.81534609       3.59895069       0.00636791       0.00371429      -0.01892459
Sn       2.93189599       2.28564206       8.91884420       0.00201173       0.00143179      -0.00485545
10
Lattice="3.0126002194183665 0.0004662609909927695 -0.00026576290763566835 -0.001324226266448863 7.902466924271957 -0.002517552886049715 0.0006670062699021614 0.002274414837006798 7.903822172934893" Properties=species:S:1:pos:R:3:forces:R:3 structure_index=8 total_energy=-28.90818977355957 stress="-0.040027424693107605 -3.995057340944186e-05 -2.0231225789757445e-05 -3.993778955191374e-05 -0.041898343712091446 -0.0006297757499851286 -2.011292235692963e-05 -0.0006298265652731061 -0.0423903726041317" pbc="T T T"
Li       2.48344754       3.69074133       1.29080572       0.00104720      -0.02225243       0.02290011
Li       2.48550589       2.55715607       5.24285301      -0.00148461       0.02238576       0.02210007
Li       2.48301736       7.64243897       2.42325141       0.00070839      -0.02334354      -0.02195683
Li       2.48415566       6.50872920       6.37631589      -0.00013162       0.02249638      -0.02320007
Ga       0.97846601       4.16954624       6.85550249      -0.00039385       0.02514761       0.02400947
Ga       0.97882436       0.21765607       4.76571884      -0.00022269       0.02414334      -0.02570237
Ga       0.97718514       6.02953773       0.81135347      -0.00043255      -0.02518681      -0.02367984
Ga       0.97809995       2.07796094       2.90387104      -0.00021692      -0.02388274       0.02488734
Sn       0.97840340       1.15057259       7.78610727       0.00039500      -0.00161366       0.00066987
Sn       0.97708487       5.09826188       3.83349622       0.00073165       0.00210609      -0.00002777
4
Lattice="4.06290090591394 -0.010147649618294119 0.014861538040118714 0.010288115380022365 4.063183957774132 0.011826029751586333 -0.013314848336007875 -0.010552711942203618 4.431015931760595" Properties=species:S:1:pos:R:3:forces:R:3 structure_index=9 total_energy=-11.800190925598145 stress="0.09913468360900879 0.0016362440073862672 0.009630727581679821 0.0016362465685233474 0.10048701614141464 0.007586735766381025 0.009630853310227394 0.0075867874547839165 -0.054086703807115555" pbc="T T T"
Li       1.47172319       2.82315324       0.39032316      -0.00053906      -0.00033422       0.00117381
Li       3.49803943       0.78638380       0.39197297      -0.00017802      -0.00023042       0.00092792
Ga       1.45986299       0.78598771       2.60047893      -0.00148035      -0.00019233      -0.00059776
Sn       3.49595708       2.81238628       2.61384372       0.00219744       0.00075697      -0.00150397
20
Lattice="6.912873247395841 0.19088918468627417 -1.3571372077957176 0.025176338872412083 6.813534497915682 -1.3592800591106105 -0.09240531647985446 -0.0807499855843628 7.855673955463047" Properties=species:S:1:pos:R:3:forces:R:3 structure_index=10 total_energy=-56.849571228027344 stress="0.0017210077494382858 0.00032475957414135337 0.0003773267089854926 0.00032477412605658174 0.000551345176063478 0.0010017846943810582 0.000377253774786368 0.0010017069289460778 0.0026650307700037956" pbc="T T T"
Li       6.59250378       3.23260492       2.43466984       0.00288212      -0.00151558       0.01705116
Li       3.04471166       6.62896082       2.38966204      -0.00822231      -0.00577305       0.00393061
Li       5.68652529       5.84007967       3.51527710       0.00402974       0.00471172      -0.01073286
Li       2.20791638       2.31132450       4.96683106       0.01122978       0.01344639      -0.00889801
Li       0.99139947       4.67182487       1.54435669      -0.00793641      -0.01887351       0.01660382
Li       0.82583371       0.82278883       6.94986875      -0.01077663       0.03465413      -0.03491764
Li       1.54648175       1.49218061       2.04574289       0.01251092       0.01177016       0.00931433
Li       4.50849328       1.15456983       1.52793633      -0.00969015      -0.02314299      -0.00697694
Li       3.62194116       3.74739373       2.73128893       0.00878645       0.00650090       0.00634135
Li       6.35001954       6.55550196      -1.40633249       0.03219369       0.00138037      -0.00377680
Ga       0.16952855       0.27392485       4.03294240       0.00310527      -0.00249637      -0.00842250
Ga       0.26191197       3.88605043       6.57209148      -0.00757943      -0.01697084       0.00692018
Ga       4.27896776       4.40665882       5.70069860       0.01662192       0.00812171       0.02186114
Ga       3.70448967       0.39709271       6.64329197       0.00843430       0.00359152      -0.00005516
Ga       5.11819953       5.26877675       0.80377060      -0.01433381      -0.00219228      -0.03275135
Ga       2.64254334       6.00713337      -0.32404628      -0.04485048       0.00070498      -0.01547735
Sn       5.02481402       1.80340099       4.34070746      -0.00662954      -0.00131102      -0.01208887
Sn       2.84485292       3.06299022      -0.04552506       0.00560622       0.00259248       0.00546305
Sn       1.65690261       5.10697098       4.34315929       0.00543471       0.00751663       0.02786331
Sn       6.07398856       2.72138326      -0.36183049      -0.00081639      -0.02271534       0.01874851
4
Lattice="4.031063507440707 7.922981805724942e-05 2.3268538610483462 1.3434443986455435 3.8006147382254887 2.327173615783223 0.0002698709137966784 0.0001825100547340272 4.654809085547638" Properties=species:S:1:pos:R:3:forces:R:3 structure_index=11 total_energy=-11.74661636352539 stress="0.03574220463633537 -5.005611092201434e-05 -0.0015455280663445592 -5.011443863622844e-05 0.03785475343465805 -0.000930961687117815 -0.0015456039691343904 -0.0009307058644481003 0.03633109852671623" pbc="T T T"
Li       4.64654242       2.67045573       6.78350681       0.00009484       0.00055064       0.00053143
Li       1.95926692       0.76956237       2.12888211      -0.00017553       0.00162548       0.00111064
Ga       3.30311487       1.72024819       4.45628921      -0.00048724      -0.00016108       0.00006065
Sn       1.95906994       3.62107881       6.78434229       0.00056794      -0.00201504      -0.00170272
18
Lattice="4.2339189104046655 -0.0044844114534484695 -0.0008229479252490363 -2.1098787802389083 6.583440674180743 -0.028447078456574668 0.002753525451903327 0.003962390314996253 13.224799431908512" Properties=species:S:1:pos:R:3:forces:R:3 structure_index=12 total_energy=-55.571128845214844 stress="-0.014862428419291973 -0.00015820447879377753 7.553237810498103e-05 -0.00015812093624845147 -0.01494203507900238 0.00594372721388936 7.549877045676112e-05 0.005943653639405966 -0.015812989324331284" pbc="T T T"
Li       3.44280388       2.25311258       4.66106824      -0.00012638       0.00371422       0.00495881
Li       1.32421252      -0.09911902       9.20776929       0.00018880      -0.04200758      -0.00140401
Li       1.32591330       2.15944651       2.51388045      -0.00025621      -0.00893812       0.00841202
Li      -0.78694089       6.48435040       0.33418090       0.00000523       0.00751542      -0.01028358
Li      -0.78716338       4.40783886      11.32294557       0.00015774       0.03855794       0.02457552
Li      -0.78876328       4.33735941       6.96581783       0.00024899      -0.00736798      -0.02533745
Li      -0.78671754       6.45835798       4.56150153       0.00020065       0.00652931      -0.01502301
Li       3.44286302       2.26164327       0.32825251      -0.00046423       0.01188856       0.00008600
Ga       3.44405551       2.19833552       9.20177774      -0.00097512      -0.00689462      -0.00178886
Ga       1.32730710       2.17673909      11.41542106       0.00061775       0.01099845       0.00579213
Ga      -0.78807281       4.34959361       2.45473389      -0.00094450      -0.01442030       0.00283518
Sn       1.33066117       6.48321134       6.85302662      -0.00069198       0.02221169      -0.00284711
Sn       3.44227214       0.16597025      11.38574754      -0.00035292       0.03046701      -0.00238846
Sn       1.32798182       4.24232318       0.33016743      -0.00000207       0.00822477       0.02808245
Sn       1.32891957       4.27469977       9.18254281       0.00061319      -0.02754773       0.00439655
Sn       1.32553353       2.04825616       6.85420309       0.00127759      -0.03377604       0.00204342
Sn       1.32807959       4.29243290       4.63536424       0.00039565      -0.00286869      -0.00888039
Sn       3.44045179       0.15229608       2.48410002       0.00010782       0.00371366      -0.01322921
8
Lattice="5.252877271189729 0.005597410622248353 -2.990233162322606 -1.712711337776716 4.967981219168899 -2.986654366455134 0.0003525630224154233 -0.002638177263428364 6.103151524052589" Properties=species:S:1:pos:R:3:forces:R:3 structure_index=13 total_energy=-24.31716537475586 stress="-0.03460824489593506 -0.003023580415174365 0.011771028861403465 -0.0030236938036978245 -0.031021587550640106 0.0207025445997715 0.01177114900201559 0.020702343434095383 -0.04195437580347061" pbc="T T T"
Li       2.74993426       2.89632793      -3.85427649      -0.00625616       0.00622702       0.00333968
Li       0.96780313       0.41630474      -0.86295217       0.01199885      -0.00707789      -0.00470787
Ga       0.12213185       2.89548807       0.69190513      -0.00320479       0.00604402       0.00021145
Ga       3.60242331       0.41412717       0.69630471      -0.00467235      -0.00545799      -0.00686779
Ga       2.74305586       2.89803211      -0.79991608       0.00079686       0.00258911      -0.00187079
Ga       0.97544958       0.41145447       2.18337496       0.00525320      -0.00238802       0.00792529
Sn       0.11875453       2.89600383      -2.36239362       0.00425303       0.00591638       0.00069578
Sn       3.60114906       0.41749520      -2.35495302      -0.00816869      -0.00585263       0.00127424
6
Lattice="4.563916731404784 -0.000986292359233981 -0.0002835468342034274 -2.28088998213672 3.953124163723281 0.0001319193976068524 0.0005814415621724101 0.00010215163037971179 7.482216730106876" Properties=species:S:1:pos:R:3:forces:R:3 structure_index=14 total_energy=-18.664522171020508 stress="-0.019115028902888298 0.0001625484728720039 -0.00013812907855026424 0.00016255068476311862 -0.018733259290456772 6.669222057098523e-05 -0.00013809606025461107 6.639595085289329e-05 -7.802131585776806e-05" pbc="T T T"
Li      -0.47284574       3.13316327       3.98278265       0.00050084      -0.00050138      -0.00257158
Li      -0.47373439       3.13325190       0.24218489       0.00037183       0.00020340      -0.00289750
Ga       1.80865719       1.81545193       6.96558296       0.00020654      -0.00082416      -0.01983587
Ga       4.09060306       0.49674332       3.22463507      -0.00145331       0.00149401      -0.02173940
Sn       4.09032810       0.49725134       6.03960182      -0.00029757       0.00031779       0.02426762
Sn       1.80867118       1.81503492       2.29876606       0.00067167      -0.00068969       0.02277675
14
Lattice="5.458184185722524 0.04191578103536035 -2.0986013576147515 -1.2357578939005238 6.248116970423738 -2.671899287225727 0.0548746878950064 -0.1846860798137426 7.552451117016632" Properties=species:S:1:pos:R:3:forces:R:3 structure_index=15 total_energy=-39.456539154052734 stress="-0.013653888367116451 0.004669384099543095 0.009742573834955692 0.004669248592108488 -0.016184421256184578 0.011945711448788643 0.009742469526827335 0.011945509351789951 -0.006466803140938282" pbc="T T T"
Li       4.18548848       0.42824414       3.47758348      -0.00422175       0.00816105      -0.00846335
Li       3.87222173       3.18135030       2.94500969       0.01105654       0.00832003       0.00461103
Li       0.17569438       1.48969009       2.06300956      -0.01810100      -0.01162655       0.00913113
Li       2.52239114       5.75053667       3.60250457       0.02529454       0.01119935      -0.00918846
Li       2.02251340       5.05529164      -1.32082638       0.00745562       0.00252027      -0.00880150
Li       4.27934228       4.05835411       0.30970373      -0.00156054      -0.00016146      -0.00185884
Li       1.43154426       0.45098631       4.45821691      -0.00647156       0.00600863      -0.01157375
Li       0.62815136       2.49491463      -0.81272185      -0.00902836      -0.01247600       0.00328577
Ga       1.07267396       3.19179865       4.09477003       0.01597540      -0.00980863       0.00245580
Ga      -0.77033332       5.00375236      -0.20645776       0.01415776       0.01079930      -0.02094716
Ga       2.94181901       1.50870527       0.93551556      -0.01198240      -0.00899122       0.02762260
Sn       1.57134680       4.10563171       1.39416939      -0.00106905       0.00658172       0.00150754
Sn      -0.27688653       5.92193728      -2.89833621      -0.01580095       0.01686328      -0.00098238
Sn       3.33194116       2.47286253      -1.93308601      -0.00570428      -0.02738977       0.01320158
13
Lattice="5.68470403786565 -0.007881428434716902 -0.0006678713535699461 -2.8382317863609616 4.926096447896392 0.004613222213232849 -0.0033972336738393736 0.003358799056808656 9.550416797243797" Properties=species:S:1:pos:R:3:forces:R:3 structure_index=16 total_energy=-37.95028305053711 stress="-0.01287319976836443 0.001284613274037838 -0.0011618277058005333 0.0012844199081882834 -0.011674455367028713 0.00022022520715836436 -0.0011619353899732232 0.0002199293376179412 -0.022694550454616547" pbc="T T T"
Li       2.24888881       1.49515195       6.40183492       0.00508224      -0.00394843      -0.00018229
Li      -0.58505120       3.13315914       6.40293744      -0.00207173       0.00151131       0.00120407
Li       2.25608916       1.48728714       1.62626624      -0.00088431       0.00104480      -0.00010940
Li      -0.58733483       3.13538259       1.62862876       0.00206767      -0.00145625      -0.00066124
Ga       0.83164026       2.31178979       8.65368159      -0.00082648       0.00072789      -0.00829707
Ga      -0.58738971       4.77501993       8.65581535       0.00066994       0.00084849      -0.01256854
Ga       3.67765615       2.30933643       4.14934849      -0.00131102       0.00078879       0.01277291
Ga      -0.58394804       4.77667548       4.15323408      -0.00119516       0.00008903       0.01242606
Ga       3.67439973       2.30757350       8.65471574       0.00083110       0.00010502      -0.01334129
Ga       0.83612615       2.31453344       4.15029015      -0.00238252       0.00073982       0.00878482
Sn       2.25798660       4.77464421       3.10616487       0.00160427       0.00051365      -0.00836777
Sn       2.25888446       4.76647772       0.14516180      -0.00072106      -0.00162614       0.01098219
Sn       2.25520991       4.77336326       6.40173516      -0.00086293       0.00066205      -0.00264238
9
Lattice="4.097159424803956 0.0021419893761042276 -1.3597731833944553 -1.108230668803762 5.400708001961642 -3.3307101627032636 0.32213111899539165 -0.7793376234299307 7.821906211996816" Properties=species:S:1:pos:R:3:forces:R:3 structure_index=17 total_energy=-24.964792251586914 stress="-0.010583511553704739 -0.007196488324552774 -0.001805229694582522 -0.007196497637778521 -0.029384057968854904 -0.021832814440131187 -0.0018050546059384942 -0.021832821890711784 -0.01543506234884262" pbc="T T T"
Li       1.24490231       4.62658430       0.16399089      -0.00618526      -0.02898469      -0.01848154
Li       2.88218052       2.98934032      -1.75769953       0.00459103       0.04036549       0.01405781
Li       2.25985691       1.91127102       3.21802530       0.00612751       0.02921788       0.01864655
Li       3.23111579      -0.67240648       6.14044908       0.00143336       0.01036937       0.00448158
Li       1.38174583       1.80963787       0.57201191      -0.00126534      -0.01033207      -0.00382479
Li       0.30041987       4.32819880      -2.68179860      -0.00453977      -0.04094321      -0.01455218
Ga      -0.29615211       3.26791033       2.37104988      -0.00008468       0.00004995      -0.00016292
Sn       0.78554456       0.72150938       5.62635463       0.00357012       0.02412745       0.01074112
Sn       3.82739351       0.41579832       1.08639538      -0.00364694      -0.02387020      -0.01090564
4
Lattice="4.278069688667577 0.0002545998002650361 -0.0030078689417275426 -0.0007682643134729194 4.278030923262702 -0.0009613704273520846 0.0017982530295651189 0.0005744057825549719 4.360846096646536" Properties=species:S:1:pos:R:3:forces:R:3 structure_index=18 total_energy=-12.158655166625977 stress="0.03302522376179695 -0.0015323151601478457 -0.006162137258797884 -0.0015322419349104166 0.03276864439249039 -0.0019717055838555098 -0.006162027362734079 -0.0019714776426553726 0.06763917207717896" pbc="T T T"
Li       0.97437501       1.53515766       3.82927975      -0.00043307       0.00096249      -0.00011780
Ga       3.11216142       1.53548696       1.64741810       0.00029660       0.00021221       0.00043498
Ga       0.97283792       3.67409018       1.64834370       0.00000136       0.00004289       0.00068807
Sn       3.11283677       3.67500608       3.82765980       0.00013513      -0.00121759      -0.00100525
4
Lattice="3.9026182236531497 -0.00020094454324758902 -1.7441270867303493 -0.7781914089274927 3.817139045007062 -1.742363362307579 -0.04374724155957314 -0.04887591713179979 5.140645153382633" Properties=species:S:1:pos:R:3:forces:R:3 structure_index=19 total_energy=-11.714166641235352 stress="0.07575282454490662 -0.006821754388511181 -0.017294874414801598 -0.006821748800575733 0.03583008050918579 -0.013905040919780731 -0.017294880002737045 -0.013905123807489872 0.05413321033120155" pbc="T T T"
Li      -0.31206533       1.81619796       0.22096852      -0.00305114       0.00466053      -0.00044706
Li       0.83618428       0.84119996       2.79479922      -0.00105983      -0.00162675      -0.00493387
Ga       1.24748886       3.72813720      -1.52360355       0.00233964      -0.00581397       0.00015759
Sn       2.39568792       2.74667451       1.04451532       0.00177132       0.00278019       0.00522334
4
Lattice="4.287352588431067 -0.0010091617375867705 0.0018172097811307822 0.0037456164872620833 4.287266332659633 0.004794297136548499 -0.0009575861369796596 -0.0025116353166283133 4.347409125075145" Properties=species:S:1:pos:R:3:forces:R:3 structure_index=20 total_energy=-12.158576965332031 stress="0.08712020516395569 0.007936939597129822 0.004411699250340462 0.007936922833323479 0.08645626902580261 0.011659923940896988 0.004411728121340275 0.01165999285876751 0.008645015768706799" pbc="T T T"