phonopy:
  version: "2.37.1"
  frequency_unit_conversion_factor: 15.633302
  symmetry_tolerance: 1.00000e-05

space_group:
  type: "Immm"
  number: 71
  Hall_symbol: "-I 2 2"

primitive_matrix:
- [  0.000000000000000, -1.000000000000000,  1.000000000000000 ]
- [ -0.000000000000000, -1.000000000000000,  0.000000000000000 ]
- [  1.000000000000000, -1.000000000000000,  0.000000000000000 ]

supercell_matrix:
- [   3,   0,   0 ]
- [   0,   3,   0 ]
- [   0,   0,   3 ]

primitive_cell:
  lattice:
  - [    -1.049306318618852,    -1.871562570545370,     2.563519359127164 ] # a
  - [    -1.623005005677247,    -1.403440340429142,    -2.563519359127164 ] # b
  - [     3.342965986160019,     0.000000000000000,     0.000000000000000 ] # c
  points:
  - symbol: Sn # 1
    coordinates: [  0.000000000000000,  0.000000000000000,  0.000000000000000 ]
    mass: 118.710000
  reciprocal_lattice: # without 2pi
  - [     0.000000000000000,    -0.305343240046904,     0.167165119792609 ] # a*
  - [     0.000000000000000,    -0.305343240046904,    -0.222923605864795 ] # b*
  - [     0.299135559302736,    -0.244086299876443,    -0.055758482892981 ] # c*

unit_cell:
  lattice:
  - [     3.342965986160019,     0.000000000000000,     0.000000000000000 ] # a
  - [    -0.670654661863920,     3.275002910974511,     0.000000000000000 ] # b
  - [    -1.049306318618853,    -1.871562570545369,     2.563519359127164 ] # c
  points:
  - symbol: Sn # 1
    coordinates: [  0.000000000000000,  0.000000000000000,  0.000000000000000 ]
    mass: 118.710000
    reduced_to: 1

supercell:
  lattice:
  - [    10.028897958480057,     0.000000000000000,     0.000000000000000 ] # a
  - [    -2.011963985591760,     9.825008732923532,     0.000000000000000 ] # b
  - [    -3.147918955856559,    -5.614687711636106,     7.690558077381493 ] # c
  points:
  - symbol: Sn # 1
    coordinates: [  0.000000000000000,  0.000000000000000,  0.000000000000000 ]
    mass: 118.710000
    reduced_to: 1
  - symbol: Sn # 2
    coordinates: [  0.333333333333333,  0.000000000000000,  0.000000000000000 ]
    mass: 118.710000
    reduced_to: 1
  - symbol: Sn # 3
    coordinates: [  0.666666666666667,  0.000000000000000,  0.000000000000000 ]
    mass: 118.710000
    reduced_to: 1
  - symbol: Sn # 4
    coordinates: [  0.000000000000000,  0.333333333333333,  0.000000000000000 ]
    mass: 118.710000
    reduced_to: 1
  - symbol: Sn # 5
    coordinates: [  0.333333333333333,  0.333333333333333,  0.000000000000000 ]
    mass: 118.710000
    reduced_to: 1
  - symbol: Sn # 6
    coordinates: [  0.666666666666667,  0.333333333333333,  0.000000000000000 ]
    mass: 118.710000
    reduced_to: 1
  - symbol: Sn # 7
    coordinates: [  0.000000000000000,  0.666666666666667,  0.000000000000000 ]
    mass: 118.710000
    reduced_to: 1
  - symbol: Sn # 8
    coordinates: [  0.333333333333333,  0.666666666666667,  0.000000000000000 ]
    mass: 118.710000
    reduced_to: 1
  - symbol: Sn # 9
    coordinates: [  0.666666666666667,  0.666666666666667,  0.000000000000000 ]
    mass: 118.710000
    reduced_to: 1
  - symbol: Sn # 10
    coordinates: [  0.000000000000000,  0.000000000000000,  0.333333333333333 ]
    mass: 118.710000
    reduced_to: 1
  - symbol: Sn # 11
    coordinates: [  0.333333333333333,  0.000000000000000,  0.333333333333333 ]
    mass: 118.710000
    reduced_to: 1
  - symbol: Sn # 12
    coordinates: [  0.666666666666667,  0.000000000000000,  0.333333333333333 ]
    mass: 118.710000
    reduced_to: 1
  - symbol: Sn # 13
    coordinates: [  0.000000000000000,  0.333333333333333,  0.333333333333333 ]
    mass: 118.710000
    reduced_to: 1
  - symbol: Sn # 14
    coordinates: [  0.333333333333333,  0.333333333333333,  0.333333333333333 ]
    mass: 118.710000
    reduced_to: 1
  - symbol: Sn # 15
    coordinates: [  0.666666666666667,  0.333333333333333,  0.333333333333333 ]
    mass: 118.710000
    reduced_to: 1
  - symbol: Sn # 16
    coordinates: [  0.000000000000000,  0.666666666666667,  0.333333333333333 ]
    mass: 118.710000
    reduced_to: 1
  - symbol: Sn # 17
    coordinates: [  0.333333333333333,  0.666666666666667,  0.333333333333333 ]
    mass: 118.710000
    reduced_to: 1
  - symbol: Sn # 18
    coordinates: [  0.666666666666667,  0.666666666666667,  0.333333333333333 ]
    mass: 118.710000
    reduced_to: 1
  - symbol: Sn # 19
    coordinates: [  0.000000000000000,  0.000000000000000,  0.666666666666667 ]
    mass: 118.710000
    reduced_to: 1
  - symbol: Sn # 20
    coordinates: [  0.333333333333333,  0.000000000000000,  0.666666666666667 ]
    mass: 118.710000
    reduced_to: 1
  - symbol: Sn # 21
    coordinates: [  0.666666666666667,  0.000000000000000,  0.666666666666667 ]
    mass: 118.710000
    reduced_to: 1
  - symbol: Sn # 22
    coordinates: [  0.000000000000000,  0.333333333333333,  0.666666666666667 ]
    mass: 118.710000
    reduced_to: 1
  - symbol: Sn # 23
    coordinates: [  0.333333333333333,  0.333333333333333,  0.666666666666667 ]
    mass: 118.710000
    reduced_to: 1
  - symbol: Sn # 24
    coordinates: [  0.666666666666667,  0.333333333333333,  0.666666666666667 ]
    mass: 118.710000
    reduced_to: 1
  - symbol: Sn # 25
    coordinates: [  0.000000000000000,  0.666666666666667,  0.666666666666667 ]
    mass: 118.710000
    reduced_to: 1
  - symbol: Sn # 26
    coordinates: [  0.333333333333333,  0.666666666666667,  0.666666666666667 ]
    mass: 118.710000
    reduced_to: 1
  - symbol: Sn # 27
    coordinates: [  0.666666666666667,  0.666666666666667,  0.666666666666667 ]
    mass: 118.710000
    reduced_to: 1

displacements:
- atom:    1
  displacement:
    [   0.0100000000000000,  0.0000000000000000,  0.0000000000000000 ]
  forces:
  - [  -0.0117813255637884, -0.0001327180652879,  0.0012695339974016 ]
  - [   0.0039916737005115, -0.0000667777640047, -0.0000893837423064 ]
  - [   0.0037992063444108, -0.0000646581174806, -0.0000845706090331 ]
  - [  -0.0001458391197957, -0.0008873492479324,  0.0000152576249093 ]
  - [  -0.0000865798792802,  0.0002385939005762, -0.0000471281819046 ]
  - [   0.0003160919877701, -0.0003152415156364, -0.0000196990440600 ]
  - [  -0.0001464877277613, -0.0009004498715512,  0.0000146643724293 ]
  - [   0.0003138008760288, -0.0003157148603350, -0.0000222333474085 ]
  - [  -0.0000792542705312,  0.0002528997138143, -0.0000475988490507 ]
  - [  -0.0000865774345584,  0.0008968267939053, -0.0009982048068196 ]
  - [  -0.0000832542427815, -0.0001432106364518,  0.0000730020692572 ]
  - [   0.0004193306085654,  0.0000312500633299, -0.0000592168653384 ]
  - [   0.0005635179113597, -0.0006953611737117, -0.0012110956013203 ]
  - [   0.0003404414746910,  0.0010028969263658,  0.0016092814039439 ]
  - [   0.0006550162797794,  0.0000382408034056,  0.0000944714993238 ]
  - [   0.0001570351305418, -0.0000650765141472, -0.0001845826627687 ]
  - [   0.0001147147850133, -0.0000332217896357,  0.0001644522417337 ]
  - [  -0.0001679771812633,  0.0000780011760071,  0.0000684601254761 ]
  - [  -0.0000847050105222,  0.0009108444792219, -0.0010180067038164 ]
  - [   0.0004143589176238,  0.0000301120599033, -0.0000598779297434 ]
  - [  -0.0000874470570125, -0.0001436716265744,  0.0000727893784642 ]
  - [   0.0001559867523611, -0.0000647593406029, -0.0001848402316682 ]
  - [  -0.0001706011826172,  0.0000797408865765,  0.0000674443435855 ]
  - [   0.0001165918656625, -0.0000297157093883,  0.0001654394436628 ]
  - [   0.0005770034622401, -0.0007149133598432, -0.0012452404480428 ]
  - [   0.0006535851862282,  0.0000364831939805,  0.0000915899872780 ]
  - [   0.0003316919319332,  0.0009769507450983,  0.0015652952715755 ]

force_constants:
  format: "full"
  shape: [ 27, 27 ]
  elements:
  - # (1, 1)
    - [     1.178132551530344,     0.013271810419723,    -0.126953389263941 ]
    - [     0.013271810419723,     1.183568148967945,     0.103590437148759 ]
    - [    -0.126953389263941,     0.103590437148759,     1.214631019087487 ]
  - # (1, 2)
    - [    -0.389521394723484,     0.006623412823965,     0.008712583134264 ]
    - [     0.006623411491968,     0.034293421251633,     0.003283715584063 ]
    - [     0.008712581139271,     0.003283715547620,     0.069468225811575 ]
  - # (1, 3)
    - [    -0.389521394723484,     0.006623412823965,     0.008712583134264 ]
    - [     0.006623411491968,     0.034293421251633,     0.003283715584063 ]
    - [     0.008712581139271,     0.003283715547620,     0.069468225811575 ]
  - # (1, 4)
    - [     0.014632622837128,     0.089386018332699,    -0.001469067244703 ]
    - [     0.089386018917346,    -0.369860593398372,    -0.009194224203215 ]
    - [    -0.001469067211268,    -0.009194224116374,     0.069468225651163 ]
  - # (1, 5)
    - [     0.008291702284138,    -0.024574676064095,     0.004736361761955 ]
    - [    -0.024574676103286,    -0.001773096023694,    -0.003864739507790 ]
    - [     0.004736361768396,    -0.003864739461352,     0.026578251433144 ]
  - # (1, 6)
    - [    -0.031475701733039,     0.031571042254208,     0.002160221511713 ]
    - [     0.031571042308156,    -0.018545474486929,    -0.001762680453499 ]
    - [     0.002160221448541,    -0.001762680361455,     0.024240376048163 ]
  - # (1, 7)
    - [     0.014632622837128,     0.089386018332699,    -0.001469067244703 ]
    - [     0.089386018917346,    -0.369860593398372,    -0.009194224203215 ]
    - [    -0.001469067211268,    -0.009194224116374,     0.069468225651163 ]
  - # (1, 8)
    - [    -0.031475701733039,     0.031571042254208,     0.002160221511713 ]
    - [     0.031571042308156,    -0.018545474486929,    -0.001762680453499 ]
    - [     0.002160221448541,    -0.001762680361455,     0.024240376048163 ]
  - # (1, 9)
    - [     0.008291702284138,    -0.024574676064095,     0.004736361761955 ]
    - [    -0.024574676103286,    -0.001773096023694,    -0.003864739507790 ]
    - [     0.004736361768396,    -0.003864739461352,     0.026578251433144 ]
  - # (1, 10)
    - [     0.008536048078945,    -0.090395706215551,     0.100815198747486 ]
    - [    -0.090395706275340,    -0.072407650819035,     0.182715154638317 ]
    - [     0.100815198796922,     0.182715154652737,    -0.221888142910443 ]
  - # (1, 11)
    - [     0.008535059893770,     0.014344117436255,    -0.007289562010423 ]
    - [     0.014344117451900,     0.014409832199253,     0.005948080461843 ]
    - [    -0.007289561919276,     0.005948080375810,    -0.000451811226956 ]
  - # (1, 12)
    - [    -0.041691805552223,    -0.003046008268120,     0.005958331000382 ]
    - [    -0.003046008292733,    -0.011541882136159,     0.018060672387949 ]
    - [     0.005958331013032,     0.018060672415770,    -0.024692439979412 ]
  - # (1, 13)
    - [    -0.057026073470532,     0.070513731156933,     0.122816813372787 ]
    - [     0.070513731172295,    -0.028146487751193,    -0.100215104725311 ]
    - [     0.122816813347785,    -0.100215104722942,    -0.160349109156748 ]
  - # (1, 14)
    - [    -0.033617507872013,    -0.099027905814532,    -0.158775316456107 ]
    - [    -0.099027904772402,    -0.030254093736706,    -0.135421311023621 ]
    - [    -0.158775314781465,    -0.135421311208352,    -0.221888146998324 ]
  - # (1, 15)
    - [    -0.065425309687727,    -0.003718088994709,    -0.009322216319084 ]
    - [    -0.003718089014415,    -0.015091576765628,    -0.020783021303526 ]
    - [    -0.009322216301778,    -0.020783021218299,    -0.043373756599039 ]
  - # (1, 16)
    - [    -0.015655868549443,     0.006473690566251,     0.018490307036602 ]
    - [     0.006473690495455,    -0.064861017702094,     0.013302113944899 ]
    - [     0.018490307022161,     0.013302113977592,    -0.043373756157444 ]
  - # (1, 17)
    - [    -0.011558013998250,     0.003124785701075,    -0.016498155331172 ]
    - [     0.003124785560968,    -0.041675673356983,    -0.009460468871399 ]
    - [    -0.016498155076054,    -0.009460468931194,    -0.024692440336592 ]
  - # (1, 18)
    - [     0.016909966727559,    -0.007910318124243,    -0.006858804571730 ]
    - [    -0.007910318149773,     0.013670218241933,     0.005596594496911 ]
    - [    -0.006858804614296,     0.005596594476059,    -0.056360985122832 ]
  - # (1, 19)
    - [     0.008536048078945,    -0.090395706215551,     0.100815198747486 ]
    - [    -0.090395706275340,    -0.072407650819035,     0.182715154638317 ]
    - [     0.100815198796922,     0.182715154652737,    -0.221888142910443 ]
  - # (1, 20)
    - [    -0.041691805552223,    -0.003046008268120,     0.005958331000382 ]
    - [    -0.003046008292733,    -0.011541882136159,     0.018060672387949 ]
    - [     0.005958331013032,     0.018060672415770,    -0.024692439979412 ]
  - # (1, 21)
    - [     0.008535059893770,     0.014344117436255,    -0.007289562010423 ]
    - [     0.014344117451900,     0.014409832199253,     0.005948080461843 ]
    - [    -0.007289561919276,     0.005948080375810,    -0.000451811226956 ]
  - # (1, 22)
    - [    -0.015655868549443,     0.006473690566251,     0.018490307036602 ]
    - [     0.006473690495455,    -0.064861017702094,     0.013302113944899 ]
    - [     0.018490307022161,     0.013302113977592,    -0.043373756157444 ]
  - # (1, 23)
    - [     0.016909966727559,    -0.007910318124243,    -0.006858804571730 ]
    - [    -0.007910318149773,     0.013670218241933,     0.005596594496911 ]
    - [    -0.006858804614296,     0.005596594476059,    -0.056360985122832 ]
  - # (1, 24)
    - [    -0.011558013998250,     0.003124785701075,    -0.016498155331172 ]
    - [     0.003124785560968,    -0.041675673356983,    -0.009460468871399 ]
    - [    -0.016498155076054,    -0.009460468931194,    -0.024692440336592 ]
  - # (1, 25)
    - [    -0.057026073470532,     0.070513731156933,     0.122816813372787 ]
    - [     0.070513731172295,    -0.028146487751193,    -0.100215104725311 ]
    - [     0.122816813347785,    -0.100215104722942,    -0.160349109156748 ]
  - # (1, 26)
    - [    -0.065425309687727,    -0.003718088994709,    -0.009322216319084 ]
    - [    -0.003718089014415,    -0.015091576765628,    -0.020783021303526 ]
    - [    -0.009322216301778,    -0.020783021218299,    -0.043373756599039 ]
  - # (1, 27)
    - [    -0.033617507872013,    -0.099027905814532,    -0.158775316456107 ]
    - [    -0.099027904772402,    -0.030254093736706,    -0.135421311023621 ]
    - [    -0.158775314781465,    -0.135421311208352,    -0.221888146998324 ]
  - # (2, 1)
    - [    -0.389521394723484,     0.006623411491968,     0.008712581139271 ]
    - [     0.006623412823965,     0.034293421251633,     0.003283715547620 ]
    - [     0.008712583134264,     0.003283715584063,     0.069468225811575 ]
  - # (2, 2)
    - [     1.178132562986044,     0.013271816563209,    -0.126953380041349 ]
    - [     0.013271816563209,     1.183568130852484,     0.103590447216990 ]
    - [    -0.126953380041349,     0.103590447216990,     1.214631025331117 ]
  - # (2, 3)
    - [    -0.389521397240348,     0.006623411467692,     0.008712581211788 ]
    - [     0.006623411467692,     0.034293421352286,     0.003283715623253 ]
    - [     0.008712581211788,     0.003283715623253,     0.069468225877949 ]
  - # (2, 4)
    - [    -0.031475702138077,     0.031571041761609,     0.002160221246757 ]
    - [     0.031571042282562,    -0.018545473646934,    -0.001762680684640 ]
    - [     0.002160221364841,    -0.001762680618119,     0.024240376087916 ]
  - # (2, 5)
    - [     0.014632622503739,     0.089386018096566,    -0.001469067069050 ]
    - [     0.089386018239359,    -0.369860590410736,    -0.009194225690848 ]
    - [    -0.001469067296997,    -0.009194223944452,     0.069468225422102 ]
  - # (2, 6)
    - [     0.008291701992129,    -0.024574676137700,     0.004736361450283 ]
    - [    -0.024574676465233,    -0.001773095778771,    -0.003864739736754 ]
    - [     0.004736361600792,    -0.003864739474106,     0.026578251253166 ]
  - # (2, 7)
    - [     0.008291702047094,    -0.024574676053808,     0.004736361437816 ]
    - [    -0.024574676434160,    -0.001773095530537,    -0.003864739852001 ]
    - [     0.004736361694044,    -0.003864739616181,     0.026578251404620 ]
  - # (2, 8)
    - [     0.014632622730808,     0.089386017300960,    -0.001469067018299 ]
    - [     0.089386018120409,    -0.369860589974789,    -0.009194225636433 ]
    - [    -0.001469067324970,    -0.009194223822807,     0.069468225462177 ]
  - # (2, 9)
    - [    -0.031475702433526,     0.031571041899743,     0.002160221227633 ]
    - [     0.031571042380376,    -0.018545473947644,    -0.001762680623971 ]
    - [     0.002160221309609,    -0.001762680576229,     0.024240376020297 ]
  - # (2, 10)
    - [    -0.041691806106044,    -0.003046008507886,     0.005958330559510 ]
    - [    -0.003046008415944,    -0.011541881483889,     0.018060672141529 ]
    - [     0.005958330746000,     0.018060671832675,    -0.024692440093049 ]
  - # (2, 11)
    - [     0.008536047930532,    -0.090395705214583,     0.100815198368781 ]
    - [    -0.090395706316896,    -0.072407649474918,     0.182715154420391 ]
    - [     0.100815198666268,     0.182715152178751,    -0.221888142356460 ]
  - # (2, 12)
    - [     0.008535059521726,     0.014344117046289,    -0.007289562207867 ]
    - [     0.014344117357841,     0.014409832603384,     0.005948080337823 ]
    - [    -0.007289562327089,     0.005948080055673,    -0.000451811475968 ]
  - # (2, 13)
    - [    -0.065425309498194,    -0.003718089198684,    -0.009322216341734 ]
    - [    -0.003718089081353,    -0.015091576604396,    -0.020783021288028 ]
    - [    -0.009322216358957,    -0.020783021287270,    -0.043373756800603 ]
  - # (2, 14)
    - [    -0.057026073714515,     0.070513730769200,     0.122816813228003 ]
    - [     0.070513730804848,    -0.028146487488566,    -0.100215105140338 ]
    - [     0.122816812642702,    -0.100215104628287,    -0.160349109795067 ]
  - # (2, 15)
    - [    -0.033617509404390,    -0.099027906138481,    -0.158775317740027 ]
    - [    -0.099027906198850,    -0.030254094002399,    -0.135421312166997 ]
    - [    -0.158775317320979,    -0.135421311732806,    -0.221888149144974 ]
  - # (2, 16)
    - [     0.016909966421993,    -0.007910318250658,    -0.006858804824790 ]
    - [    -0.007910318327514,     0.013670218686189,     0.005596594262382 ]
    - [    -0.006858805147630,     0.005596593825855,    -0.056360985359440 ]
  - # (2, 17)
    - [    -0.015655869350180,     0.006473690259711,     0.018490306496580 ]
    - [     0.006473690164217,    -0.064861016068722,     0.013302113108047 ]
    - [     0.018490306468951,     0.013302113037489,    -0.043373756223382 ]
  - # (2, 18)
    - [    -0.011558013987930,     0.003124785459455,    -0.016498155197536 ]
    - [     0.003124785486260,    -0.041675673256325,    -0.009460468899468 ]
    - [    -0.016498155407409,    -0.009460468884154,    -0.024692440628429 ]
  - # (2, 19)
    - [     0.008535059567249,     0.014344117103012,    -0.007289562197969 ]
    - [     0.014344117379388,     0.014409832727715,     0.005948080271032 ]
    - [    -0.007289562280406,     0.005948079975482,    -0.000451811452944 ]
  - # (2, 20)
    - [     0.008536047883639,    -0.090395705242326,     0.100815198356076 ]
    - [    -0.090395706384897,    -0.072407649372948,     0.182715154310352 ]
    - [     0.100815198575067,     0.182715152182566,    -0.221888142420396 ]
  - # (2, 21)
    - [    -0.041691806104674,    -0.003046008536865,     0.005958330562317 ]
    - [    -0.003046008369489,    -0.011541881710190,     0.018060672318358 ]
    - [     0.005958330790519,     0.018060671909051,    -0.024692440052137 ]
  - # (2, 22)
    - [    -0.011558013954186,     0.003124785482128,    -0.016498155198461 ]
    - [     0.003124785463669,    -0.041675673055082,    -0.009460469017816 ]
    - [    -0.016498155380208,    -0.009460468948957,    -0.024692440525147 ]
  - # (2, 23)
    - [    -0.015655868953845,     0.006473690300444,     0.018490306780960 ]
    - [     0.006473690253757,    -0.064861016923100,     0.013302113659260 ]
    - [     0.018490306656283,     0.013302113526634,    -0.043373756416787 ]
  - # (2, 24)
    - [     0.016909966093577,    -0.007910318334819,    -0.006858805353939 ]
    - [    -0.007910318377292,     0.013670218723998,     0.005596593779282 ]
    - [    -0.006858805298823,     0.005596593749334,    -0.056360985417241 ]
  - # (2, 25)
    - [    -0.033617507865191,    -0.099027904729890,    -0.158775315183329 ]
    - [    -0.099027905877547,    -0.030254093585422,    -0.135421311508174 ]
    - [    -0.158775316424673,    -0.135421311009264,    -0.221888147674974 ]
  - # (2, 26)
    - [    -0.057026073697341,     0.070513730693346,     0.122816813270877 ]
    - [     0.070513730789515,    -0.028146487438243,    -0.100215105169004 ]
    - [     0.122816812646325,    -0.100215104534573,    -0.160349109808221 ]
  - # (2, 27)
    - [    -0.065425310506607,    -0.003718089349632,    -0.009322216962300 ]
    - [    -0.003718089327891,    -0.015091576444079,    -0.020783021581846 ]
    - [    -0.009322216897962,    -0.020783021620611,    -0.043373757025701 ]
  - # (3, 1)
    - [    -0.389521394723484,     0.006623411491968,     0.008712581139271 ]
    - [     0.006623412823965,     0.034293421251633,     0.003283715547620 ]
    - [     0.008712583134264,     0.003283715584063,     0.069468225811575 ]
  - # (3, 2)
    - [    -0.389521397240348,     0.006623411467692,     0.008712581211788 ]
    - [     0.006623411467692,     0.034293421352286,     0.003283715623253 ]
    - [     0.008712581211788,     0.003283715623253,     0.069468225877949 ]
  - # (3, 3)
    - [     1.178132562986044,     0.013271816563209,    -0.126953380041349 ]
    - [     0.013271816563209,     1.183568130852483,     0.103590447216990 ]
    - [    -0.126953380041349,     0.103590447216990,     1.214631025331117 ]
  - # (3, 4)
    - [     0.008291702047094,    -0.024574676053808,     0.004736361437816 ]
    - [    -0.024574676434160,    -0.001773095530537,    -0.003864739852001 ]
    - [     0.004736361694044,    -0.003864739616181,     0.026578251404620 ]
  - # (3, 5)
    - [    -0.031475702433526,     0.031571041899743,     0.002160221227633 ]
    - [     0.031571042380376,    -0.018545473947644,    -0.001762680623971 ]
    - [     0.002160221309609,    -0.001762680576229,     0.024240376020297 ]
  - # (3, 6)
    - [     0.014632622730808,     0.089386017300960,    -0.001469067018299 ]
    - [     0.089386018120409,    -0.369860589974789,    -0.009194225636433 ]
    - [    -0.001469067324970,    -0.009194223822807,     0.069468225462177 ]
  - # (3, 7)
    - [    -0.031475702138077,     0.031571041761609,     0.002160221246757 ]
    - [     0.031571042282562,    -0.018545473646934,    -0.001762680684640 ]
    - [     0.002160221364841,    -0.001762680618119,     0.024240376087916 ]
  - # (3, 8)
    - [     0.008291701992129,    -0.024574676137700,     0.004736361450283 ]
    - [    -0.024574676465233,    -0.001773095778771,    -0.003864739736754 ]
    - [     0.004736361600792,    -0.003864739474106,     0.026578251253166 ]
  - # (3, 9)
    - [     0.014632622503739,     0.089386018096566,    -0.001469067069050 ]
    - [     0.089386018239359,    -0.369860590410736,    -0.009194225690848 ]
    - [    -0.001469067296997,    -0.009194223944452,     0.069468225422102 ]
  - # (3, 10)
    - [     0.008535059567249,     0.014344117103012,    -0.007289562197969 ]
    - [     0.014344117379388,     0.014409832727715,     0.005948080271032 ]
    - [    -0.007289562280406,     0.005948079975482,    -0.000451811452944 ]
  - # (3, 11)
    - [    -0.041691806104674,    -0.003046008536865,     0.005958330562317 ]
    - [    -0.003046008369489,    -0.011541881710190,     0.018060672318358 ]
    - [     0.005958330790519,     0.018060671909051,    -0.024692440052137 ]
  - # (3, 12)
    - [     0.008536047883639,    -0.090395705242326,     0.100815198356076 ]
    - [    -0.090395706384897,    -0.072407649372948,     0.182715154310352 ]
    - [     0.100815198575067,     0.182715152182566,    -0.221888142420396 ]
  - # (3, 13)
    - [    -0.033617507865191,    -0.099027904729890,    -0.158775315183329 ]
    - [    -0.099027905877547,    -0.030254093585422,    -0.135421311508174 ]
    - [    -0.158775316424673,    -0.135421311009264,    -0.221888147674974 ]
  - # (3, 14)
    - [    -0.065425310506607,    -0.003718089349632,    -0.009322216962300 ]
    - [    -0.003718089327891,    -0.015091576444079,    -0.020783021581846 ]
    - [    -0.009322216897962,    -0.020783021620611,    -0.043373757025701 ]
  - # (3, 15)
    - [    -0.057026073697341,     0.070513730693346,     0.122816813270877 ]
    - [     0.070513730789515,    -0.028146487438243,    -0.100215105169004 ]
    - [     0.122816812646325,    -0.100215104534573,    -0.160349109808221 ]
  - # (3, 16)
    - [    -0.011558013954186,     0.003124785482128,    -0.016498155198461 ]
    - [     0.003124785463669,    -0.041675673055082,    -0.009460469017816 ]
    - [    -0.016498155380208,    -0.009460468948957,    -0.024692440525147 ]
  - # (3, 17)
    - [     0.016909966093577,    -0.007910318334819,    -0.006858805353939 ]
    - [    -0.007910318377292,     0.013670218723998,     0.005596593779282 ]
    - [    -0.006858805298823,     0.005596593749334,    -0.056360985417241 ]
  - # (3, 18)
    - [    -0.015655868953845,     0.006473690300444,     0.018490306780960 ]
    - [     0.006473690253757,    -0.064861016923100,     0.013302113659260 ]
    - [     0.018490306656283,     0.013302113526634,    -0.043373756416787 ]
  - # (3, 19)
    - [    -0.041691806106044,    -0.003046008507886,     0.005958330559510 ]
    - [    -0.003046008415944,    -0.011541881483889,     0.018060672141529 ]
    - [     0.005958330746000,     0.018060671832675,    -0.024692440093049 ]
  - # (3, 20)
    - [     0.008535059521726,     0.014344117046289,    -0.007289562207867 ]
    - [     0.014344117357841,     0.014409832603384,     0.005948080337823 ]
    - [    -0.007289562327089,     0.005948080055673,    -0.000451811475968 ]
  - # (3, 21)
    - [     0.008536047930532,    -0.090395705214583,     0.100815198368781 ]
    - [    -0.090395706316896,    -0.072407649474918,     0.182715154420391 ]
    - [     0.100815198666268,     0.182715152178751,    -0.221888142356460 ]
  - # (3, 22)
    - [     0.016909966421993,    -0.007910318250658,    -0.006858804824790 ]
    - [    -0.007910318327514,     0.013670218686189,     0.005596594262382 ]
    - [    -0.006858805147630,     0.005596593825855,    -0.056360985359440 ]
  - # (3, 23)
    - [    -0.011558013987930,     0.003124785459455,    -0.016498155197536 ]
    - [     0.003124785486260,    -0.041675673256325,    -0.009460468899468 ]
    - [    -0.016498155407409,    -0.009460468884154,    -0.024692440628429 ]
  - # (3, 24)
    - [    -0.015655869350180,     0.006473690259711,     0.018490306496580 ]
    - [     0.006473690164217,    -0.064861016068722,     0.013302113108047 ]
    - [     0.018490306468951,     0.013302113037489,    -0.043373756223382 ]
  - # (3, 25)
    - [    -0.065425309498194,    -0.003718089198684,    -0.009322216341734 ]
    - [    -0.003718089081353,    -0.015091576604396,    -0.020783021288028 ]
    - [    -0.009322216358957,    -0.020783021287270,    -0.043373756800603 ]
  - # (3, 26)
    - [    -0.033617509404390,    -0.099027906138481,    -0.158775317740027 ]
    - [    -0.099027906198850,    -0.030254094002399,    -0.135421312166997 ]
    - [    -0.158775317320979,    -0.135421311732806,    -0.221888149144974 ]
  - # (3, 27)
    - [    -0.057026073714515,     0.070513730769200,     0.122816813228003 ]
    - [     0.070513730804848,    -0.028146487488566,    -0.100215105140338 ]
    - [     0.122816812642702,    -0.100215104628287,    -0.160349109795067 ]
  - # (4, 1)
    - [     0.014632622837128,     0.089386018917346,    -0.001469067211268 ]
    - [     0.089386018332699,    -0.369860593398372,    -0.009194224116374 ]
    - [    -0.001469067244703,    -0.009194224203215,     0.069468225651163 ]
  - # (4, 2)
    - [    -0.031475702138077,     0.031571042282562,     0.002160221364841 ]
    - [     0.031571041761609,    -0.018545473646934,    -0.001762680618119 ]
    - [     0.002160221246757,    -0.001762680684640,     0.024240376087916 ]
  - # (4, 3)
    - [     0.008291702047094,    -0.024574676434160,     0.004736361694044 ]
    - [    -0.024574676053808,    -0.001773095530537,    -0.003864739616181 ]
    - [     0.004736361437816,    -0.003864739852001,     0.026578251404620 ]
  - # (4, 4)
    - [     1.178132546642605,     0.013271813241949,    -0.126953388371452 ]
    - [     0.013271813241949,     1.183568146964912,     0.103590437079123 ]
    - [    -0.126953388371452,     0.103590437079123,     1.214631025334802 ]
  - # (4, 5)
    - [    -0.389521391977269,     0.006623412094006,     0.008712582593780 ]
    - [     0.006623412620182,     0.034293420928655,     0.003283715574148 ]
    - [     0.008712582727822,     0.003283715557942,     0.069468225586199 ]
  - # (4, 6)
    - [    -0.389521391087013,     0.006623411990912,     0.008712582641561 ]
    - [     0.006623412043731,     0.034293420902038,     0.003283715630986 ]
    - [     0.008712582535842,     0.003283715657813,     0.069468225630701 ]
  - # (4, 7)
    - [     0.014632622761225,     0.089386018120799,    -0.001469067360824 ]
    - [     0.089386018120799,    -0.369860592936162,    -0.009194224146466 ]
    - [    -0.001469067360824,    -0.009194224146466,     0.069468225665213 ]
  - # (4, 8)
    - [     0.008291702166653,    -0.024574676279364,     0.004736361689883 ]
    - [    -0.024574676226545,    -0.001773096068799,    -0.003864739446743 ]
    - [     0.004736361584164,    -0.003864739419915,     0.026578251255008 ]
  - # (4, 9)
    - [    -0.031475702036010,     0.031571042254396,     0.002160221353953 ]
    - [     0.031571042214076,    -0.018545474460665,    -0.001762680472788 ]
    - [     0.002160221317846,    -0.001762680491566,     0.024240376022139 ]
  - # (4, 10)