# Thermal properties / unit cell (natom)

unit:
  temperature:   K
  free_energy:   kJ/mol
  entropy:       J/K/mol
  heat_capacity: J/K/mol

natom: 1    
cutoff_frequency: 0.00000
num_modes: 155610
num_integrated_modes: 154403

zero_point_energy:       0.8842157

thermal_properties:
- temperature:         0.0000000
  free_energy:         0.8842157
  entropy:             0.0000000
  heat_capacity:       0.0000000
  energy:              0.8842157

- temperature:        10.0000000
  free_energy:         0.8806975
  entropy:             1.1688526
  heat_capacity:       2.7712339
  energy:              0.8923860

- temperature:        20.0000000
  free_energy:         0.8500632
  entropy:             5.3457955
  heat_capacity:      10.1898131
  energy:              0.9569791

- temperature:        30.0000000
  free_energy:         0.7703605
  entropy:            10.6123905
  heat_capacity:      15.6888546
  energy:              1.0887322

- temperature:        40.0000000
  free_energy:         0.6388526
  entropy:            15.6017011
  heat_capacity:      18.8520246
  energy:              1.2629206

- temperature:        50.0000000
  free_energy:         0.4602483
  entropy:            20.0228420
  heat_capacity:      20.6839476
  energy:              1.4613904

- temperature:        60.0000000
  free_energy:         0.2402110
  entropy:            23.9007993
  heat_capacity:      21.8038436
  energy:              1.6742589

- temperature:        70.0000000
  free_energy:        -0.0162395
  entropy:            27.3200316
  heat_capacity:      22.5276207
  energy:              1.8961628

- temperature:        80.0000000
  free_energy:        -0.3049346
  entropy:            30.3622190
  heat_capacity:      23.0185440
  energy:              2.1240429

- temperature:        90.0000000
  free_energy:        -0.6224526
  entropy:            33.0945499
  heat_capacity:      23.3652588
  energy:              2.3560569

- temperature:       100.0000000
  free_energy:        -0.9659709
  entropy:            35.5700960
  heat_capacity:      23.6185050
  energy:              2.5910387

- temperature:       110.0000000
  free_energy:        -1.3331384
  entropy:            37.8305150
  heat_capacity:      23.8087654
  energy:              2.8282183

- temperature:       120.0000000
  free_energy:        -1.7219745
  entropy:            39.9086910
  heat_capacity:      23.9551490
  energy:              3.0670685

- temperature:       130.0000000
  free_energy:        -2.1307927
  entropy:            41.8308426
  heat_capacity:      24.0700856
  energy:              3.3072169

- temperature:       140.0000000
  free_energy:        -2.5581421
  entropy:            43.6181114
  heat_capacity:      24.1619240
  energy:              3.5483935

- temperature:       150.0000000
  free_energy:        -3.0027631
  entropy:            45.2877390
  heat_capacity:      24.2364306
  energy:              3.7903978

- temperature:       160.0000000
  free_energy:        -3.4635524
  entropy:            46.8539403
  heat_capacity:      24.2976873
  energy:              4.0330780

- temperature:       170.0000000
  free_energy:        -3.9395368
  entropy:            48.3285534
  heat_capacity:      24.3486464
  energy:              4.2763173

- temperature:       180.0000000
  free_energy:        -4.4298515
  entropy:            49.7215304
  heat_capacity:      24.3914846
  energy:              4.5200239

- temperature:       190.0000000
  free_energy:        -4.9337236
  entropy:            51.0413102
  heat_capacity:      24.4278345
  energy:              4.7641254

- temperature:       200.0000000
  free_energy:        -5.4504579
  entropy:            52.2951054
  heat_capacity:      24.4589392
  energy:              5.0085632

- temperature:       210.0000000
  free_energy:        -5.9794265
  entropy:            53.4891258
  heat_capacity:      24.4857587
  energy:              5.2532899

- temperature:       220.0000000
  free_energy:        -6.5200592
  entropy:            54.6287535
  heat_capacity:      24.5090435
  energy:              5.4982666

- temperature:       230.0000000
  free_energy:        -7.0718360
  entropy:            55.7186825
  heat_capacity:      24.5293871
  energy:              5.7434610

- temperature:       240.0000000
  free_energy:        -7.6342809
  entropy:            56.7630294
  heat_capacity:      24.5472638
  energy:              5.9888461

- temperature:       250.0000000
  free_energy:        -8.2069568
  entropy:            57.7654244
  heat_capacity:      24.5630561
  energy:              6.2343993

- temperature:       260.0000000
  free_energy:        -8.7894604
  entropy:            58.7290834
  heat_capacity:      24.5770753
  energy:              6.4801013

- temperature:       270.0000000
  free_energy:        -9.3814189
  entropy:            59.6568692
  heat_capacity:      24.5895769
  energy:              6.7259358

- temperature:       280.0000000
  free_energy:        -9.9824867
  entropy:            60.5513401
  heat_capacity:      24.6007718
  energy:              6.9718885

- temperature:       290.0000000
  free_energy:       -10.5923423
  entropy:            61.4147923
  heat_capacity:      24.6108358
  energy:              7.2179474

- temperature:       300.0000000
  free_energy:       -11.2106861
  entropy:            62.2492935
  heat_capacity:      24.6199160
  energy:              7.4641020

- temperature:       310.0000000
  free_energy:       -11.8372380
  entropy:            63.0567124
  heat_capacity:      24.6281364
  energy:              7.7103429

- temperature:       320.0000000
  free_energy:       -12.4717357
  entropy:            63.8387434
  heat_capacity:      24.6356021
  energy:              7.9566622

- temperature:       330.0000000
  free_energy:       -13.1139333
  entropy:            64.5969275
  heat_capacity:      24.6424027
  energy:              8.2030527

- temperature:       340.0000000
  free_energy:       -13.7635995
  entropy:            65.3326698
  heat_capacity:      24.6486147
  energy:              8.4495083

- temperature:       350.0000000
  free_energy:       -14.4205162
  entropy:            66.0472557
  heat_capacity:      24.6543042
  energy:              8.6960233

- temperature:       360.0000000
  free_energy:       -15.0844780
  entropy:            66.7418634
  heat_capacity:      24.6595281
  energy:              8.9425928

- temperature:       370.0000000
  free_energy:       -15.7552905
  entropy:            67.4175756
  heat_capacity:      24.6643357
  energy:              9.1892124

- temperature:       380.0000000
  free_energy:       -16.4327699
  entropy:            68.0753899
  heat_capacity:      24.6687701
  energy:              9.4358783

- temperature:       390.0000000
  free_energy:       -17.1167417
  entropy:            68.7162268
  heat_capacity:      24.6728690
  energy:              9.6825867

- temperature:       400.0000000
  free_energy:       -17.8070407
  entropy:            69.3409383
  heat_capacity:      24.6766653
  energy:              9.9293346

- temperature:       410.0000000
  free_energy:       -18.5035094
  entropy:            69.9503135
  heat_capacity:      24.6801881
  energy:             10.1761191

- temperature:       420.0000000
  free_energy:       -19.2059983
  entropy:            70.5450853
  heat_capacity:      24.6834630
  energy:             10.4229376

- temperature:       430.0000000
  free_energy:       -19.9143647
  entropy:            71.1259357
  heat_capacity:      24.6865127
  energy:             10.6697876

- temperature:       440.0000000
  free_energy:       -20.6284727
  entropy:            71.6934996
  heat_capacity:      24.6893574
  energy:             10.9166672

- temperature:       450.0000000
  free_energy:       -21.3481924
  entropy:            72.2483701
  heat_capacity:      24.6920151
  energy:             11.1635742

- temperature:       460.0000000
  free_energy:       -22.0733996
  entropy:            72.7911011
  heat_capacity:      24.6945018
  energy:             11.4105069

- temperature:       470.0000000
  free_energy:       -22.8039757
  entropy:            73.3222114
  heat_capacity:      24.6968317
  energy:             11.6574637

- temperature:       480.0000000
  free_energy:       -23.5398067
  entropy:            73.8421871
  heat_capacity:      24.6990180
  energy:             11.9044430

- temperature:       490.0000000
  free_energy:       -24.2807838
  entropy:            74.3514845
  heat_capacity:      24.7010720
  energy:             12.1514436

- temperature:       500.0000000
  free_energy:       -25.0268023
  entropy:            74.8505327
  heat_capacity:      24.7030042
  energy:             12.3984641

- temperature:       510.0000000
  free_energy:       -25.7777617
  entropy:            75.3397352
  heat_capacity:      24.7048242
  energy:             12.6455033

- temperature:       520.0000000
  free_energy:       -26.5335654
  entropy:            75.8194724
  heat_capacity:      24.7065404
  energy:             12.8925602

- temperature:       530.0000000
  free_energy:       -27.2941208
  entropy:            76.2901029
  heat_capacity:      24.7081605
  energy:             13.1396338

- temperature:       540.0000000
  free_energy:       -28.0593383
  entropy:            76.7519655
  heat_capacity:      24.7096916
  energy:             13.3867231

- temperature:       550.0000000
  free_energy:       -28.8291319
  entropy:            77.2053805
  heat_capacity:      24.7111401
  energy:             13.6338273

- temperature:       560.0000000
  free_energy:       -29.6034187
  entropy:            77.6506507
  heat_capacity:      24.7125118
  energy:             13.8809457

- temperature:       570.0000000
  free_energy:       -30.3821187
  entropy:            78.0880633
  heat_capacity:      24.7138121
  energy:             14.1280773

- temperature:       580.0000000
  free_energy:       -31.1651547
  entropy:            78.5178903
  heat_capacity:      24.7150458
  energy:             14.3752217

- temperature:       590.0000000
  free_energy:       -31.9524521
  entropy:            78.9403901
  heat_capacity:      24.7162174
  energy:             14.6223781

- temperature:       600.0000000
  free_energy:       -32.7439389
  entropy:            79.3558079
  heat_capacity:      24.7173310
  energy:             14.8695458

- temperature:       610.0000000
  free_energy:       -33.5395454
  entropy:            79.7643770
  heat_capacity:      24.7183903
  energy:             15.1167245

- temperature:       620.0000000
  free_energy:       -34.3392044
  entropy:            80.1663191
  heat_capacity:      24.7193989
  energy:             15.3639135

- temperature:       630.0000000
  free_energy:       -35.1428504
  entropy:            80.5618456
  heat_capacity:      24.7203599
  energy:             15.6111123

- temperature:       640.0000000
  free_energy:       -35.9504206
  entropy:            80.9511580
  heat_capacity:      24.7212762
  energy:             15.8583205

- temperature:       650.0000000
  free_energy:       -36.7618535
  entropy:            81.3344480
  heat_capacity:      24.7221507
  energy:             16.1055377

- temperature:       660.0000000
  free_energy:       -37.5770901
  entropy:            81.7118992
  heat_capacity:      24.7229857
  energy:             16.3527634

- temperature:       670.0000000
  free_energy:       -38.3960726
  entropy:            82.0836865
  heat_capacity:      24.7237837
  energy:             16.5999973

- temperature:       680.0000000
  free_energy:       -39.2187455
  entropy:            82.4499771
  heat_capacity:      24.7245468
  energy:             16.8472390

- temperature:       690.0000000
  free_energy:       -40.0450544
  entropy:            82.8109312
  heat_capacity:      24.7252769
  energy:             17.0944881

- temperature:       700.0000000
  free_energy:       -40.8749468
  entropy:            83.1667017
  heat_capacity:      24.7259761
  energy:             17.3417444

- temperature:       710.0000000
  free_energy:       -41.7083716
  entropy:            83.5174355
  heat_capacity:      24.7266459
  energy:             17.5890075

- temperature:       720.0000000
  free_energy:       -42.5452792
  entropy:            83.8632728
  heat_capacity:      24.7272880
  energy:             17.8362772

- temperature:       730.0000000
  free_energy:       -43.3856212
  entropy:            84.2043485
  heat_capacity:      24.7279040
  energy:             18.0835532

- temperature:       740.0000000
  free_energy:       -44.2293507
  entropy:            84.5407918
  heat_capacity:      24.7284952
  energy:             18.3308352

- temperature:       750.0000000
  free_energy:       -45.0764220
  entropy:            84.8727268
  heat_capacity:      24.7290629
  energy:             18.5781230

- temperature:       760.0000000
  free_energy:       -45.9267906
  entropy:            85.2002724
  heat_capacity:      24.7296084
  energy:             18.8254164

- temperature:       770.0000000
  free_energy:       -46.7804132
  entropy:            85.5235433
  heat_capacity:      24.7301327
  energy:             19.0727151

- temperature:       780.0000000
  free_energy:       -47.6372476
  entropy:            85.8426495
  heat_capacity:      24.7306371
  energy:             19.3200190

- temperature:       790.0000000
  free_energy:       -48.4972527
  entropy:            86.1576968
  heat_capacity:      24.7311224
  energy:             19.5673278

- temperature:       800.0000000
  free_energy:       -49.3603884
  entropy:            86.4687872
  heat_capacity:      24.7315897
  energy:             19.8146414

- temperature:       810.0000000
  free_energy:       -50.2266156
  entropy:            86.7760187
  heat_capacity:      24.7320398
  energy:             20.0619595

- temperature:       820.0000000
  free_energy:       -51.0958962
  entropy:            87.0794858
  heat_capacity:      24.7324735
  energy:             20.3092821

- temperature:       830.0000000
  free_energy:       -51.9681930
  entropy:            87.3792795
  heat_capacity:      24.7328917
  energy:             20.5566090

- temperature:       840.0000000
  free_energy:       -52.8434698
  entropy:            87.6754878
  heat_capacity:      24.7332950
  energy:             20.8039399

- temperature:       850.0000000
  free_energy:       -53.7216911
  entropy:            87.9681952
  heat_capacity:      24.7336842
  energy:             21.0512748

- temperature:       860.0000000
  free_energy:       -54.6028223
  entropy:            88.2574836
  heat_capacity:      24.7340599
  energy:             21.2986136

- temperature:       870.0000000
  free_energy:       -55.4868297
  entropy:            88.5434318
  heat_capacity:      24.7344227
  energy:             21.5459560

- temperature:       880.0000000
  free_energy:       -56.3736801
  entropy:            88.8261160
  heat_capacity:      24.7347732
  energy:             21.7933020

- temperature:       890.0000000
  free_energy:       -57.2633414
  entropy:            89.1056098
  heat_capacity:      24.7351120
  energy:             22.0406514

- temperature:       900.0000000
  free_energy:       -58.1557819
  entropy:            89.3819845
  heat_capacity:      24.7354396
  energy:             22.2880042

- temperature:       910.0000000
  free_energy:       -59.0509709
  entropy:            89.6553088
  heat_capacity:      24.7357564
  energy:             22.5353602

- temperature:       920.0000000
  free_energy:       -59.9488781
  entropy:            89.9256493
  heat_capacity:      24.7360630
  energy:             22.7827193

- temperature:       930.0000000
  free_energy:       -60.8494741
  entropy:            90.1930704
  heat_capacity:      24.7363597
  energy:             23.0300814

- temperature:       940.0000000
  free_energy:       -61.7527300
  entropy:            90.4576345
  heat_capacity:      24.7366471
  energy:             23.2774464

- temperature:       950.0000000
  free_energy:       -62.6586175
  entropy:            90.7194019
  heat_capacity:      24.7369254
  energy:             23.5248143

- temperature:       960.0000000
  free_energy:       -63.5671089
  entropy:            90.9784311
  heat_capacity:      24.7371950
  energy:             23.7721849

- temperature:       970.0000000
  free_energy:       -64.4781772
  entropy:            91.2347787
  heat_capacity:      24.7374564
  energy:             24.0195582

- temperature:       980.0000000
  free_energy:       -65.3917957
  entropy:            91.4884997
  heat_capacity:      24.7377098
  energy:             24.2669340

- temperature:       990.0000000
  free_energy:       -66.3079386
  entropy:            91.7396474
  heat_capacity:      24.7379555
  energy:             24.5143123

- temperature:      1000.0000000
  free_energy:       -67.2265803
  entropy:            91.9882734
  heat_capacity:      24.7381940
  energy:             24.7616931
