# Thermal properties / unit cell (natom)

unit:
  temperature:   K
  free_energy:   kJ/mol
  entropy:       J/K/mol
  heat_capacity: J/K/mol

natom: 9    
cutoff_frequency: 0.00000
num_modes: 202500
num_integrated_modes: 202498

zero_point_energy:      37.8942286

thermal_properties:
- temperature:         0.0000000
  free_energy:        37.8942286
  entropy:             0.0000000
  heat_capacity:       0.0000000
  energy:             37.8942286

- temperature:        10.0000000
  free_energy:        37.8934065
  entropy:             0.2957005
  heat_capacity:       0.9257547
  energy:             37.8963635

- temperature:        20.0000000
  free_energy:        37.8810459
  entropy:             2.7118038
  heat_capacity:       8.1001601
  energy:             37.9352820

- temperature:        30.0000000
  free_energy:        37.8289903
  entropy:             8.1079456
  heat_capacity:      19.5147968
  energy:             38.0722287

- temperature:        40.0000000
  free_energy:        37.7128505
  entropy:            15.3374441
  heat_capacity:      31.2827287
  energy:             38.3263483

- temperature:        50.0000000
  free_energy:        37.5189357
  entropy:            23.5744355
  heat_capacity:      42.9954184
  energy:             38.6976575

- temperature:        60.0000000
  free_energy:        37.2392077
  entropy:            32.4634048
  heat_capacity:      54.9237671
  energy:             39.1870120

- temperature:        70.0000000
  free_energy:        36.8680401
  entropy:            41.8419734
  heat_capacity:      67.0969301
  energy:             39.7969782

- temperature:        80.0000000
  free_energy:        36.4011066
  entropy:            51.5991095
  heat_capacity:      79.2929822
  energy:             40.5290354

- temperature:        90.0000000
  free_energy:        35.8351439
  entropy:            61.6304720
  heat_capacity:      91.2051232
  energy:             41.3818864

- temperature:       100.0000000
  free_energy:        35.1679256
  entropy:            71.8335502
  heat_capacity:     102.5631189
  energy:             42.3512806

- temperature:       110.0000000
  free_energy:        34.3982190
  entropy:            82.1132274
  heat_capacity:     113.1816491
  energy:             43.4306740

- temperature:       120.0000000
  free_energy:        33.5256827
  entropy:            92.3869117
  heat_capacity:     122.9620370
  energy:             44.6121121

- temperature:       130.0000000
  free_energy:        32.5507283
  entropy:           102.5868315
  heat_capacity:     131.8744835
  energy:             45.8870164

- temperature:       140.0000000
  free_energy:        31.4743702
  entropy:           112.6599572
  heat_capacity:     139.9366083
  energy:             47.2467643

- temperature:       150.0000000
  free_energy:        30.2980855
  entropy:           122.5665488
  heat_capacity:     147.1950118
  energy:             48.6830678

- temperature:       160.0000000
  free_energy:        29.0236903
  entropy:           132.2781304
  heat_capacity:     153.7116130
  energy:             50.1881912

- temperature:       170.0000000
  free_energy:        27.6532381
  entropy:           141.7753880
  heat_capacity:     159.5544111
  energy:             51.7550541

- temperature:       180.0000000
  free_energy:        26.1889378
  entropy:           151.0462416
  heat_capacity:     164.7916773
  energy:             53.3772613

- temperature:       190.0000000
  free_energy:        24.6330901
  entropy:           160.0841940
  heat_capacity:     169.4885708
  energy:             55.0490869

- temperature:       200.0000000
  free_energy:        22.9880382
  entropy:           168.8869742
  heat_capacity:     173.7053688
  energy:             56.7654331

- temperature:       210.0000000
  free_energy:        21.2561319
  entropy:           177.4554521
  heat_capacity:     177.4967186
  energy:             58.5217768

- temperature:       220.0000000
  free_energy:        19.4396998
  entropy:           185.7927864
  heat_capacity:     180.9115092
  energy:             60.3141129

- temperature:       230.0000000
  free_energy:        17.5410308
  entropy:           193.9037656
  heat_capacity:     183.9930947
  energy:             62.1388969

- temperature:       240.0000000
  free_energy:        15.5623594
  entropy:           201.7943025
  heat_capacity:     186.7797019
  energy:             63.9929920

- temperature:       250.0000000
  free_energy:        13.5058574
  entropy:           209.4710506
  heat_capacity:     189.3049160
  energy:             65.8736201

- temperature:       260.0000000
  free_energy:        11.3736274
  entropy:           216.9411162
  heat_capacity:     191.5981849
  energy:             67.7783176

- temperature:       270.0000000
  free_energy:         9.1676995
  entropy:           224.2118422
  heat_capacity:     193.6853054
  energy:             69.7048969

- temperature:       280.0000000
  free_energy:         6.8900302
  entropy:           231.2906497
  heat_capacity:     195.5888741
  energy:             71.6514122

- temperature:       290.0000000
  free_energy:         4.5425017
  entropy:           238.1849214
  heat_capacity:     197.3286943
  energy:             73.6161289

- temperature:       300.0000000
  free_energy:         2.1269227
  entropy:           244.9019188
  heat_capacity:     198.9221386
  energy:             75.5974984

- temperature:       310.0000000
  free_energy:        -0.3549694
  entropy:           251.4487233
  heat_capacity:     200.3844666
  energy:             77.5941348

- temperature:       320.0000000
  free_energy:        -2.9015073
  entropy:           257.8321966
  heat_capacity:     201.7291025
  energy:             79.6047956

- temperature:       330.0000000
  free_energy:        -5.5110910
  entropy:           264.0589549
  heat_capacity:     202.9678761
  energy:             81.6283641

- temperature:       340.0000000
  free_energy:        -8.1821853
  entropy:           270.1353542
  heat_capacity:     204.1112314
  energy:             83.6638352

- temperature:       350.0000000
  free_energy:       -10.9133172
  entropy:           276.0674823
  heat_capacity:     205.1684062
  energy:             85.7103016

- temperature:       360.0000000
  free_energy:       -13.7030734
  entropy:           281.8611579
  heat_capacity:     206.1475877
  energy:             87.7669434

- temperature:       370.0000000
  free_energy:       -16.5500974
  entropy:           287.5219327
  heat_capacity:     207.0560461
  energy:             89.8330177

- temperature:       380.0000000
  free_energy:       -19.4530868
  entropy:           293.0550973
  heat_capacity:     207.9002507
  energy:             91.9078502

- temperature:       390.0000000
  free_energy:       -22.4107908
  entropy:           298.4656888
  heat_capacity:     208.6859691
  energy:             93.9908278

- temperature:       400.0000000
  free_energy:       -25.4220080
  entropy:           303.7584996
  heat_capacity:     209.4183540
  energy:             96.0813919

- temperature:       410.0000000
  free_energy:       -28.4855834
  entropy:           308.9380877
  heat_capacity:     210.1020171
  energy:             98.1790325

- temperature:       420.0000000
  free_energy:       -31.6004068
  entropy:           314.0087867
  heat_capacity:     210.7410946
  energy:            100.2832837

- temperature:       430.0000000
  free_energy:       -34.7654099
  entropy:           318.9747167
  heat_capacity:     211.3393028
  energy:            102.3937183

- temperature:       440.0000000
  free_energy:       -37.9795650
  entropy:           323.8397946
  heat_capacity:     211.8999870
  energy:            104.5099447

- temperature:       450.0000000
  free_energy:       -41.2418821
  entropy:           328.6077446
  heat_capacity:     212.4261641
  energy:            106.6316030

- temperature:       460.0000000
  free_energy:       -44.5514079
  entropy:           333.2821086
  heat_capacity:     212.9205597
  energy:            108.7583620

- temperature:       470.0000000
  free_energy:       -47.9072236
  entropy:           337.8662554
  heat_capacity:     213.3856402
  energy:            110.8899165

- temperature:       480.0000000
  free_energy:       -51.3084430
  entropy:           342.3633908
  heat_capacity:     213.8236417
  energy:            113.0259846

- temperature:       490.0000000
  free_energy:       -54.7542115
  entropy:           346.7765661
  heat_capacity:     214.2365947
  energy:            115.1663059

- temperature:       500.0000000
  free_energy:       -58.2437042
  entropy:           351.1086867
  heat_capacity:     214.6263455
  energy:            117.3106392

- temperature:       510.0000000
  free_energy:       -61.7761243
  entropy:           355.3625203
  heat_capacity:     214.9945764
  energy:            119.4587611

- temperature:       520.0000000
  free_energy:       -65.3507024
  entropy:           359.5407048
  heat_capacity:     215.3428219
  energy:            121.6104641

- temperature:       530.0000000
  free_energy:       -68.9666946
  entropy:           363.6457551
  heat_capacity:     215.6724839
  energy:            123.7655556

- temperature:       540.0000000
  free_energy:       -72.6233817
  entropy:           367.6800701
  heat_capacity:     215.9848455
  energy:            125.9238561

- temperature:       550.0000000
  free_energy:       -76.3200679
  entropy:           371.6459393
  heat_capacity:     216.2810819
  energy:            128.0851987

- temperature:       560.0000000
  free_energy:       -80.0560797
  entropy:           375.5455487
  heat_capacity:     216.5622717
  energy:            130.2494276

- temperature:       570.0000000
  free_energy:       -83.8307650
  entropy:           379.3809865
  heat_capacity:     216.8294058
  energy:            132.4163973

- temperature:       580.0000000
  free_energy:       -87.6434922
  entropy:           383.1542484
  heat_capacity:     217.0833957
  energy:            134.5859719

- temperature:       590.0000000
  free_energy:       -91.4936491
  entropy:           386.8672429
  heat_capacity:     217.3250810
  energy:            136.7580242

- temperature:       600.0000000
  free_energy:       -95.3806422
  entropy:           390.5217956
  heat_capacity:     217.5552361
  energy:            138.9324351

- temperature:       610.0000000
  free_energy:       -99.3038960
  entropy:           394.1196539
  heat_capacity:     217.7745759
  energy:            141.1090929

- temperature:       620.0000000
  free_energy:      -103.2628519
  entropy:           397.6624914
  heat_capacity:     217.9837615
  energy:            143.2878928

- temperature:       630.0000000
  free_energy:      -107.2569678
  entropy:           401.1519113
  heat_capacity:     218.1834044
  energy:            145.4687363

- temperature:       640.0000000
  free_energy:      -111.2857172
  entropy:           404.5894503
  heat_capacity:     218.3740715
  energy:            147.6515310

- temperature:       650.0000000
  free_energy:      -115.3485888
  entropy:           407.9765821
  heat_capacity:     218.5562883
  energy:            149.8361896

- temperature:       660.0000000
  free_energy:      -119.4450855
  entropy:           411.3147208
  heat_capacity:     218.7305429
  energy:            152.0226302

- temperature:       670.0000000
  free_energy:      -123.5747244
  entropy:           414.6052236
  heat_capacity:     218.8972890
  energy:            154.2107754

- temperature:       680.0000000
  free_energy:      -127.7370356
  entropy:           417.8493940
  heat_capacity:     219.0569484
  energy:            156.4005524

- temperature:       690.0000000
  free_energy:      -131.9315620
  entropy:           421.0484842
  heat_capacity:     219.2099143
  energy:            158.5918921

- temperature:       700.0000000
  free_energy:      -136.1578590
  entropy:           424.2036979
  heat_capacity:     219.3565530
  energy:            160.7847296

- temperature:       710.0000000
  free_energy:      -140.4154936
  entropy:           427.3161927
  heat_capacity:     219.4972061
  energy:            162.9790032

- temperature:       720.0000000
  free_energy:      -144.7040442
  entropy:           430.3870819
  heat_capacity:     219.6321930
  energy:            165.1746548

- temperature:       730.0000000
  free_energy:      -149.0231001
  entropy:           433.4174374
  heat_capacity:     219.7618120
  energy:            167.3716292

- temperature:       740.0000000
  free_energy:      -153.3722613
  entropy:           436.4082910
  heat_capacity:     219.8863421
  energy:            169.5698741

- temperature:       750.0000000
  free_energy:      -157.7511376
  entropy:           439.3606367
  heat_capacity:     220.0060446
  energy:            171.7693399

- temperature:       760.0000000
  free_energy:      -162.1593488
  entropy:           442.2754323
  heat_capacity:     220.1211644
  energy:            173.9699797

- temperature:       770.0000000
  free_energy:      -166.5965241
  entropy:           445.1536011
  heat_capacity:     220.2319311
  energy:            176.1717487

- temperature:       780.0000000
  free_energy:      -171.0623017
  entropy:           447.9960337
  heat_capacity:     220.3385601
  energy:            178.3746045

- temperature:       790.0000000
  free_energy:      -175.5563286
  entropy:           450.8035890
  heat_capacity:     220.4412539
  energy:            180.5785068

- temperature:       800.0000000
  free_energy:      -180.0782600
  entropy:           453.5770964
  heat_capacity:     220.5402027
  energy:            182.7834171

- temperature:       810.0000000
  free_energy:      -184.6277597
  entropy:           456.3173563
  heat_capacity:     220.6355855
  energy:            184.9892990

- temperature:       820.0000000
  free_energy:      -189.2044989
  entropy:           459.0251420
  heat_capacity:     220.7275706
  energy:            187.1961175

- temperature:       830.0000000
  free_energy:      -193.8081568
  entropy:           461.7012004
  heat_capacity:     220.8163168
  energy:            189.4038396

- temperature:       840.0000000
  free_energy:      -198.4384196
  entropy:           464.3462537
  heat_capacity:     220.9019735
  energy:            191.6124335

- temperature:       850.0000000
  free_energy:      -203.0949808
  entropy:           466.9610000
  heat_capacity:     220.9846820
  energy:            193.8218692

- temperature:       860.0000000
  free_energy:      -207.7775408
  entropy:           469.5461146
  heat_capacity:     221.0645752
  energy:            196.0321178

- temperature:       870.0000000
  free_energy:      -212.4858065
  entropy:           472.1022509
  heat_capacity:     221.1417790
  energy:            198.2431518

- temperature:       880.0000000
  free_energy:      -217.2194913
  entropy:           474.6300411
  heat_capacity:     221.2164122
  energy:            200.4549448

- temperature:       890.0000000
  free_energy:      -221.9783149
  entropy:           477.1300974
  heat_capacity:     221.2885871
  energy:            202.6674718

- temperature:       900.0000000
  free_energy:      -226.7620028
  entropy:           479.6030128
  heat_capacity:     221.3584101
  energy:            204.8807087

- temperature:       910.0000000
  free_energy:      -231.5702866
  entropy:           482.0493616
  heat_capacity:     221.4259818
  energy:            207.0946325

- temperature:       920.0000000
  free_energy:      -236.4029033
  entropy:           484.4697005
  heat_capacity:     221.4913977
  energy:            209.3092212

- temperature:       930.0000000
  free_energy:      -241.2595957
  entropy:           486.8645691
  heat_capacity:     221.5547480
  energy:            211.5244536

- temperature:       940.0000000
  free_energy:      -246.1401116
  entropy:           489.2344905
  heat_capacity:     221.6161185
  energy:            213.7403095

- temperature:       950.0000000
  free_energy:      -251.0442040
  entropy:           491.5799723
  heat_capacity:     221.6755905
  energy:            215.9567696

- temperature:       960.0000000
  free_energy:      -255.9716312
  entropy:           493.9015067
  heat_capacity:     221.7332413
  energy:            218.1738153

- temperature:       970.0000000
  free_energy:      -260.9221559
  entropy:           496.1995717
  heat_capacity:     221.7891442
  energy:            220.3914286

- temperature:       980.0000000
  free_energy:      -265.8955459
  entropy:           498.4746311
  heat_capacity:     221.8433688
  energy:            222.6095926

- temperature:       990.0000000
  free_energy:      -270.8915734
  entropy:           500.7271354
  heat_capacity:     221.8959814
  energy:            224.8282906

- temperature:      1000.0000000
  free_energy:      -275.9100149
  entropy:           502.9575219
  heat_capacity:     221.9470452
  energy:            227.0475070
