phonopy:
  version: "2.37.1"
  frequency_unit_conversion_factor: 15.633302
  symmetry_tolerance: 1.00000e-05

space_group:
  type: "P1"
  number: 1
  Hall_symbol: "P 1"

primitive_matrix:
- [  1.000000000000000,  0.000000000000000, -0.000000000000000 ]
- [  0.000000000000000, -1.000000000000000,  0.000000000000000 ]
- [  0.000000000000000,  0.000000000000000, -1.000000000000000 ]

supercell_matrix:
- [   3,   0,   0 ]
- [   0,   2,   0 ]
- [   0,   0,   2 ]

primitive_cell:
  lattice:
  - [     4.331247559754642,     0.000000000000000,     0.000000000000000 ] # a
  - [     0.000548258341673,    -6.473946776514740,     0.000000000000000 ] # b
  - [     2.153243177989890,    -0.031778703615628,    -6.787828986045203 ] # c
  points:
  - symbol: Li # 1
    coordinates: [  0.527213220659019,  0.650335038933484,  0.455680207506140 ]
    mass: 6.940000
  - symbol: Li # 2
    coordinates: [  0.527433426974124,  0.150337259049339,  0.453324918923802 ]
    mass: 6.940000
  - symbol: Li # 3
    coordinates: [  0.755634774424912,  0.142693030847668,  0.996518004072414 ]
    mass: 6.940000
  - symbol: Li # 4
    coordinates: [  0.753843905957532,  0.642946648702194,  0.000419885735121 ]
    mass: 6.940000
  - symbol: Ga # 5
    coordinates: [  0.346299811176256,  0.853889740417770,  0.816139987421318 ]
    mass: 69.723000
  - symbol: Ga # 6
    coordinates: [  0.934817766242134,  0.353718924648584,  0.637617966641462 ]
    mass: 69.723000
  - symbol: Ga # 7
    coordinates: [  0.935377567990181,  0.939308244744277,  0.636503172427657 ]
    mass: 69.723000
  - symbol: Ga # 8
    coordinates: [  0.346904577419862,  0.439773792484683,  0.815076005701103 ]
    mass: 69.723000
  - symbol: Sn # 9
    coordinates: [  0.141030647336252,  0.397150731760064,  0.226369397298487 ]
    mass: 118.710000
  - symbol: Sn # 10
    coordinates: [  0.140814187783923,  0.897273678223089,  0.226416254314300 ]
    mass: 118.710000
  reciprocal_lattice: # without 2pi
  - [     0.230880360959245,     0.000019552536991,     0.073240050955189 ] # a*
  - [     0.000000000000000,    -0.154465279762209,     0.000723162936862 ] # b*
  - [     0.000000000000000,    -0.000000000000000,    -0.147322509458599 ] # c*

unit_cell:
  lattice:
  - [     4.331247559754642,     0.000000000000000,     0.000000000000000 ] # a
  - [    -0.000548258341673,     6.473946776514740,     0.000000000000000 ] # b
  - [    -2.153243177989890,     0.031778703615628,     6.787828986045203 ] # c
  points:
  - symbol: Li # 1
    coordinates: [  0.527213220659019,  0.349664961066516,  0.544319792493860 ]
    mass: 6.940000
    reduced_to: 1
  - symbol: Li # 2
    coordinates: [  0.527433426974124,  0.849662740950661,  0.546675081076198 ]
    mass: 6.940000
    reduced_to: 2
  - symbol: Li # 3
    coordinates: [  0.755634774424912,  0.857306969152332,  0.003481995927586 ]
    mass: 6.940000
    reduced_to: 3
  - symbol: Li # 4
    coordinates: [  0.753843905957532,  0.357053351297806,  0.999580114264879 ]
    mass: 6.940000
    reduced_to: 4
  - symbol: Ga # 5
    coordinates: [  0.346299811176256,  0.146110259582230,  0.183860012578682 ]
    mass: 69.723000
    reduced_to: 5
  - symbol: Ga # 6
    coordinates: [  0.934817766242134,  0.646281075351416,  0.362382033358538 ]
    mass: 69.723000
    reduced_to: 6
  - symbol: Ga # 7
    coordinates: [  0.935377567990181,  0.060691755255723,  0.363496827572343 ]
    mass: 69.723000
    reduced_to: 7
  - symbol: Ga # 8
    coordinates: [  0.346904577419862,  0.560226207515317,  0.184923994298897 ]
    mass: 69.723000
    reduced_to: 8
  - symbol: Sn # 9
    coordinates: [  0.141030647336252,  0.602849268239936,  0.773630602701513 ]
    mass: 118.710000
    reduced_to: 9
  - symbol: Sn # 10
    coordinates: [  0.140814187783923,  0.102726321776911,  0.773583745685700 ]
    mass: 118.710000
    reduced_to: 10

supercell:
  lattice:
  - [    12.993742679263926,     0.000000000000000,     0.000000000000000 ] # a
  - [    -0.001096516683346,    12.947893553029481,     0.000000000000000 ] # b
  - [    -4.306486355979779,     0.063557407231256,    13.575657972090406 ] # c
  points:
  - symbol: Li # 1
    coordinates: [  0.175737740219673,  0.174832480533258,  0.272159896246930 ]
    mass: 6.940000
    reduced_to: 1
  - symbol: Li # 2
    coordinates: [  0.509071073553006,  0.174832480533258,  0.272159896246930 ]
    mass: 6.940000
    reduced_to: 1
  - symbol: Li # 3
    coordinates: [  0.842404406886340,  0.174832480533258,  0.272159896246930 ]
    mass: 6.940000
    reduced_to: 1
  - symbol: Li # 4
    coordinates: [  0.175737740219673,  0.674832480533258,  0.272159896246930 ]
    mass: 6.940000
    reduced_to: 1
  - symbol: Li # 5
    coordinates: [  0.509071073553006,  0.674832480533258,  0.272159896246930 ]
    mass: 6.940000
    reduced_to: 1
  - symbol: Li # 6
    coordinates: [  0.842404406886340,  0.674832480533258,  0.272159896246930 ]
    mass: 6.940000
    reduced_to: 1
  - symbol: Li # 7
    coordinates: [  0.175737740219673,  0.174832480533258,  0.772159896246930 ]
    mass: 6.940000
    reduced_to: 1
  - symbol: Li # 8
    coordinates: [  0.509071073553006,  0.174832480533258,  0.772159896246930 ]
    mass: 6.940000
    reduced_to: 1
  - symbol: Li # 9
    coordinates: [  0.842404406886340,  0.174832480533258,  0.772159896246930 ]
    mass: 6.940000
    reduced_to: 1
  - symbol: Li # 10
    coordinates: [  0.175737740219673,  0.674832480533258,  0.772159896246930 ]
    mass: 6.940000
    reduced_to: 1
  - symbol: Li # 11
    coordinates: [  0.509071073553006,  0.674832480533258,  0.772159896246930 ]
    mass: 6.940000
    reduced_to: 1
  - symbol: Li # 12
    coordinates: [  0.842404406886340,  0.674832480533258,  0.772159896246930 ]
    mass: 6.940000
    reduced_to: 1
  - symbol: Li # 13
    coordinates: [  0.175811142324708,  0.424831370475330,  0.273337540538099 ]
    mass: 6.940000
    reduced_to: 13
  - symbol: Li # 14
    coordinates: [  0.509144475658041,  0.424831370475330,  0.273337540538099 ]
    mass: 6.940000
    reduced_to: 13
  - symbol: Li # 15
    coordinates: [  0.842477808991375,  0.424831370475330,  0.273337540538099 ]
    mass: 6.940000
    reduced_to: 13
  - symbol: Li # 16
    coordinates: [  0.175811142324708,  0.924831370475330,  0.273337540538099 ]
    mass: 6.940000
    reduced_to: 13
  - symbol: Li # 17
    coordinates: [  0.509144475658041,  0.924831370475330,  0.273337540538099 ]
    mass: 6.940000
    reduced_to: 13
  - symbol: Li # 18
    coordinates: [  0.842477808991375,  0.924831370475330,  0.273337540538099 ]
    mass: 6.940000
    reduced_to: 13
  - symbol: Li # 19
    coordinates: [  0.175811142324708,  0.424831370475330,  0.773337540538099 ]
    mass: 6.940000
    reduced_to: 13
  - symbol: Li # 20
    coordinates: [  0.509144475658041,  0.424831370475330,  0.773337540538099 ]
    mass: 6.940000
    reduced_to: 13
  - symbol: Li # 21
    coordinates: [  0.842477808991375,  0.424831370475330,  0.773337540538099 ]
    mass: 6.940000
    reduced_to: 13
  - symbol: Li # 22
    coordinates: [  0.175811142324708,  0.924831370475330,  0.773337540538099 ]
    mass: 6.940000
    reduced_to: 13
  - symbol: Li # 23
    coordinates: [  0.509144475658041,  0.924831370475330,  0.773337540538099 ]
    mass: 6.940000
    reduced_to: 13
  - symbol: Li # 24
    coordinates: [  0.842477808991375,  0.924831370475330,  0.773337540538099 ]
    mass: 6.940000
    reduced_to: 13
  - symbol: Li # 25
    coordinates: [  0.251878258141637,  0.428653484576166,  0.001740997963793 ]
    mass: 6.940000
    reduced_to: 25
  - symbol: Li # 26
    coordinates: [  0.585211591474971,  0.428653484576166,  0.001740997963793 ]
    mass: 6.940000
    reduced_to: 25
  - symbol: Li # 27
    coordinates: [  0.918544924808304,  0.428653484576166,  0.001740997963793 ]
    mass: 6.940000
    reduced_to: 25
  - symbol: Li # 28
    coordinates: [  0.251878258141637,  0.928653484576166,  0.001740997963793 ]
    mass: 6.940000
    reduced_to: 25
  - symbol: Li # 29
    coordinates: [  0.585211591474971,  0.928653484576166,  0.001740997963793 ]
    mass: 6.940000
    reduced_to: 25
  - symbol: Li # 30
    coordinates: [  0.918544924808304,  0.928653484576166,  0.001740997963793 ]
    mass: 6.940000
    reduced_to: 25
  - symbol: Li # 31
    coordinates: [  0.251878258141637,  0.428653484576166,  0.501740997963793 ]
    mass: 6.940000
    reduced_to: 25
  - symbol: Li # 32
    coordinates: [  0.585211591474971,  0.428653484576166,  0.501740997963793 ]
    mass: 6.940000
    reduced_to: 25
  - symbol: Li # 33
    coordinates: [  0.918544924808304,  0.428653484576166,  0.501740997963793 ]
    mass: 6.940000
    reduced_to: 25
  - symbol: Li # 34
    coordinates: [  0.251878258141637,  0.928653484576166,  0.501740997963793 ]
    mass: 6.940000
    reduced_to: 25
  - symbol: Li # 35
    coordinates: [  0.585211591474971,  0.928653484576166,  0.501740997963793 ]
    mass: 6.940000
    reduced_to: 25
  - symbol: Li # 36
    coordinates: [  0.918544924808304,  0.928653484576166,  0.501740997963793 ]
    mass: 6.940000
    reduced_to: 25
  - symbol: Li # 37
    coordinates: [  0.251281301985844,  0.178526675648903,  0.499790057132439 ]
    mass: 6.940000
    reduced_to: 37
  - symbol: Li # 38
    coordinates: [  0.584614635319177,  0.178526675648903,  0.499790057132439 ]
    mass: 6.940000
    reduced_to: 37
  - symbol: Li # 39
    coordinates: [  0.917947968652511,  0.178526675648903,  0.499790057132439 ]
    mass: 6.940000
    reduced_to: 37
  - symbol: Li # 40
    coordinates: [  0.251281301985844,  0.678526675648903,  0.499790057132439 ]
    mass: 6.940000
    reduced_to: 37
  - symbol: Li # 41
    coordinates: [  0.584614635319177,  0.678526675648903,  0.499790057132439 ]
    mass: 6.940000
    reduced_to: 37
  - symbol: Li # 42
    coordinates: [  0.917947968652511,  0.678526675648903,  0.499790057132439 ]
    mass: 6.940000
    reduced_to: 37
  - symbol: Li # 43
    coordinates: [  0.251281301985844,  0.178526675648903,  0.999790057132439 ]
    mass: 6.940000
    reduced_to: 37
  - symbol: Li # 44
    coordinates: [  0.584614635319177,  0.178526675648903,  0.999790057132439 ]
    mass: 6.940000
    reduced_to: 37
  - symbol: Li # 45
    coordinates: [  0.917947968652511,  0.178526675648903,  0.999790057132439 ]
    mass: 6.940000
    reduced_to: 37
  - symbol: Li # 46
    coordinates: [  0.251281301985844,  0.678526675648903,  0.999790057132439 ]
    mass: 6.940000
    reduced_to: 37
  - symbol: Li # 47
    coordinates: [  0.584614635319177,  0.678526675648903,  0.999790057132439 ]
    mass: 6.940000
    reduced_to: 37
  - symbol: Li # 48
    coordinates: [  0.917947968652511,  0.678526675648903,  0.999790057132439 ]
    mass: 6.940000
    reduced_to: 37
  - symbol: Ga # 49
    coordinates: [  0.115433270392085,  0.073055129791115,  0.091930006289341 ]
    mass: 69.723000
    reduced_to: 49
  - symbol: Ga # 50
    coordinates: [  0.448766603725419,  0.073055129791115,  0.091930006289341 ]
    mass: 69.723000
    reduced_to: 49
  - symbol: Ga # 51
    coordinates: [  0.782099937058752,  0.073055129791115,  0.091930006289341 ]
    mass: 69.723000
    reduced_to: 49
  - symbol: Ga # 52
    coordinates: [  0.115433270392085,  0.573055129791115,  0.091930006289341 ]
    mass: 69.723000
    reduced_to: 49
  - symbol: Ga # 53
    coordinates: [  0.448766603725419,  0.573055129791115,  0.091930006289341 ]
    mass: 69.723000
    reduced_to: 49
  - symbol: Ga # 54
    coordinates: [  0.782099937058752,  0.573055129791115,  0.091930006289341 ]
    mass: 69.723000
    reduced_to: 49
  - symbol: Ga # 55
    coordinates: [  0.115433270392085,  0.073055129791115,  0.591930006289341 ]
    mass: 69.723000
    reduced_to: 49
  - symbol: Ga # 56
    coordinates: [  0.448766603725419,  0.073055129791115,  0.591930006289341 ]
    mass: 69.723000
    reduced_to: 49
  - symbol: Ga # 57
    coordinates: [  0.782099937058752,  0.073055129791115,  0.591930006289341 ]
    mass: 69.723000
    reduced_to: 49
  - symbol: Ga # 58
    coordinates: [  0.115433270392085,  0.573055129791115,  0.591930006289341 ]
    mass: 69.723000
    reduced_to: 49
  - symbol: Ga # 59
    coordinates: [  0.448766603725419,  0.573055129791115,  0.591930006289341 ]
    mass: 69.723000
    reduced_to: 49
  - symbol: Ga # 60
    coordinates: [  0.782099937058752,  0.573055129791115,  0.591930006289341 ]
    mass: 69.723000
    reduced_to: 49
  - symbol: Ga # 61
    coordinates: [  0.311605922080711,  0.323140537675708,  0.181191016679269 ]
    mass: 69.723000
    reduced_to: 61
  - symbol: Ga # 62
    coordinates: [  0.644939255414045,  0.323140537675708,  0.181191016679269 ]
    mass: 69.723000
    reduced_to: 61
  - symbol: Ga # 63
    coordinates: [  0.978272588747378,  0.323140537675708,  0.181191016679269 ]
    mass: 69.723000
    reduced_to: 61
  - symbol: Ga # 64
    coordinates: [  0.311605922080711,  0.823140537675708,  0.181191016679269 ]
    mass: 69.723000
    reduced_to: 61
  - symbol: Ga # 65
    coordinates: [  0.644939255414045,  0.823140537675708,  0.181191016679269 ]
    mass: 69.723000
    reduced_to: 61
  - symbol: Ga # 66
    coordinates: [  0.978272588747378,  0.823140537675708,  0.181191016679269 ]
    mass: 69.723000
    reduced_to: 61
  - symbol: Ga # 67
    coordinates: [  0.311605922080711,  0.323140537675708,  0.681191016679269 ]
    mass: 69.723000
    reduced_to: 61
  - symbol: Ga # 68
    coordinates: [  0.644939255414045,  0.323140537675708,  0.681191016679269 ]
    mass: 69.723000
    reduced_to: 61
  - symbol: Ga # 69
    coordinates: [  0.978272588747378,  0.323140537675708,  0.681191016679269 ]
    mass: 69.723000
    reduced_to: 61
  - symbol: Ga # 70
    coordinates: [  0.311605922080711,  0.823140537675708,  0.681191016679269 ]
    mass: 69.723000
    reduced_to: 61
  - symbol: Ga # 71
    coordinates: [  0.644939255414045,  0.823140537675708,  0.681191016679269 ]
    mass: 69.723000
    reduced_to: 61
  - symbol: Ga # 72
    coordinates: [  0.978272588747378,  0.823140537675708,  0.681191016679269 ]
    mass: 69.723000
    reduced_to: 61
  - symbol: Ga # 73
    coordinates: [  0.311792522663394,  0.030345877627862,  0.181748413786172 ]
    mass: 69.723000
    reduced_to: 73
  - symbol: Ga # 74
    coordinates: [  0.645125855996727,  0.030345877627862,  0.181748413786172 ]
    mass: 69.723000
    reduced_to: 73
  - symbol: Ga # 75
    coordinates: [  0.978459189330060,  0.030345877627862,  0.181748413786172 ]
    mass: 69.723000
    reduced_to: 73
  - symbol: Ga # 76
    coordinates: [  0.311792522663394,  0.530345877627862,  0.181748413786172 ]
    mass: 69.723000
    reduced_to: 73
  - symbol: Ga # 77
    coordinates: [  0.645125855996727,  0.530345877627862,  0.181748413786172 ]
    mass: 69.723000
    reduced_to: 73
  - symbol: Ga # 78
    coordinates: [  0.978459189330060,  0.530345877627862,  0.181748413786172 ]
    mass: 69.723000
    reduced_to: 73
  - symbol: Ga # 79
    coordinates: [  0.311792522663394,  0.030345877627862,  0.681748413786172 ]
    mass: 69.723000
    reduced_to: 73
  - symbol: Ga # 80
    coordinates: [  0.645125855996727,  0.030345877627862,  0.681748413786172 ]
    mass: 69.723000
    reduced_to: 73
  - symbol: Ga # 81
    coordinates: [  0.978459189330060,  0.030345877627862,  0.681748413786172 ]
    mass: 69.723000
    reduced_to: 73
  - symbol: Ga # 82
    coordinates: [  0.311792522663394,  0.530345877627862,  0.681748413786172 ]
    mass: 69.723000
    reduced_to: 73
  - symbol: Ga # 83
    coordinates: [  0.645125855996727,  0.530345877627862,  0.681748413786172 ]
    mass: 69.723000
    reduced_to: 73
  - symbol: Ga # 84
    coordinates: [  0.978459189330060,  0.530345877627862,  0.681748413786172 ]
    mass: 69.723000
    reduced_to: 73
  - symbol: Ga # 85
    coordinates: [  0.115634859139954,  0.280113103757658,  0.092461997149449 ]
    mass: 69.723000
    reduced_to: 85
  - symbol: Ga # 86
    coordinates: [  0.448968192473287,  0.280113103757658,  0.092461997149449 ]
    mass: 69.723000
    reduced_to: 85
  - symbol: Ga # 87
    coordinates: [  0.782301525806620,  0.280113103757658,  0.092461997149449 ]
    mass: 69.723000
    reduced_to: 85
  - symbol: Ga # 88
    coordinates: [  0.115634859139954,  0.780113103757658,  0.092461997149449 ]
    mass: 69.723000
    reduced_to: 85
  - symbol: Ga # 89
    coordinates: [  0.448968192473287,  0.780113103757658,  0.092461997149449 ]
    mass: 69.723000
    reduced_to: 85
  - symbol: Ga # 90
    coordinates: [  0.782301525806620,  0.780113103757658,  0.092461997149449 ]
    mass: 69.723000
    reduced_to: 85
  - symbol: Ga # 91
    coordinates: [  0.115634859139954,  0.280113103757658,  0.592461997149449 ]
    mass: 69.723000
    reduced_to: 85
  - symbol: Ga # 92
    coordinates: [  0.448968192473287,  0.280113103757658,  0.592461997149449 ]
    mass: 69.723000
    reduced_to: 85
  - symbol: Ga # 93
    coordinates: [  0.782301525806620,  0.280113103757658,  0.592461997149449 ]
    mass: 69.723000
    reduced_to: 85
  - symbol: Ga # 94
    coordinates: [  0.115634859139954,  0.780113103757658,  0.592461997149449 ]
    mass: 69.723000
    reduced_to: 85
  - symbol: Ga # 95
    coordinates: [  0.448968192473287,  0.780113103757658,  0.592461997149449 ]
    mass: 69.723000
    reduced_to: 85
  - symbol: Ga # 96
    coordinates: [  0.782301525806620,  0.780113103757658,  0.592461997149449 ]
    mass: 69.723000
    reduced_to: 85
  - symbol: Sn # 97
    coordinates: [  0.047010215778751,  0.301424634119968,  0.386815301350757 ]
    mass: 118.710000
    reduced_to: 97
  - symbol: Sn # 98
    coordinates: [  0.380343549112084,  0.301424634119968,  0.386815301350757 ]
    mass: 118.710000
    reduced_to: 97
  - symbol: Sn # 99
    coordinates: [  0.713676882445417,  0.301424634119968,  0.386815301350757 ]
    mass: 118.710000
    reduced_to: 97
  - symbol: Sn # 100
    coordinates: [  0.047010215778751,  0.801424634119968,  0.386815301350757 ]
    mass: 118.710000
    reduced_to: 97
  - symbol: Sn # 101
    coordinates: [  0.380343549112084,  0.801424634119968,  0.386815301350757 ]
    mass: 118.710000
    reduced_to: 97
  - symbol: Sn # 102
    coordinates: [  0.713676882445417,  0.801424634119968,  0.386815301350757 ]
    mass: 118.710000
    reduced_to: 97
  - symbol: Sn # 103
    coordinates: [  0.047010215778751,  0.301424634119968,  0.886815301350757 ]
    mass: 118.710000
    reduced_to: 97
  - symbol: Sn # 104
    coordinates: [  0.380343549112084,  0.301424634119968,  0.886815301350757 ]
    mass: 118.710000
    reduced_to: 97
  - symbol: Sn # 105
    coordinates: [  0.713676882445417,  0.301424634119968,  0.886815301350757 ]
    mass: 118.710000
    reduced_to: 97
  - symbol: Sn # 106
    coordinates: [  0.047010215778751,  0.801424634119968,  0.886815301350757 ]
    mass: 118.710000
    reduced_to: 97
  - symbol: Sn # 107
    coordinates: [  0.380343549112084,  0.801424634119968,  0.886815301350757 ]
    mass: 118.710000
    reduced_to: 97
  - symbol: Sn # 108
    coordinates: [  0.713676882445417,  0.801424634119968,  0.886815301350757 ]
    mass: 118.710000
    reduced_to: 97
  - symbol: Sn # 109
    coordinates: [  0.046938062594641,  0.051363160888456,  0.386791872842850 ]
    mass: 118.710000
    reduced_to: 109
  - symbol: Sn # 110
    coordinates: [  0.380271395927974,  0.051363160888456,  0.386791872842850 ]
    mass: 118.710000
    reduced_to: 109
  - symbol: Sn # 111
    coordinates: [  0.713604729261308,  0.051363160888456,  0.386791872842850 ]
    mass: 118.710000
    reduced_to: 109
  - symbol: Sn # 112
    coordinates: [  0.046938062594641,  0.551363160888456,  0.386791872842850 ]
    mass: 118.710000
    reduced_to: 109
  - symbol: Sn # 113
    coordinates: [  0.380271395927974,  0.551363160888456,  0.386791872842850 ]
    mass: 118.710000
    reduced_to: 109
  - symbol: Sn # 114
    coordinates: [  0.713604729261308,  0.551363160888456,  0.386791872842850 ]
    mass: 118.710000
    reduced_to: 109
  - symbol: Sn # 115
    coordinates: [  0.046938062594641,  0.051363160888456,  0.886791872842850 ]
    mass: 118.710000
    reduced_to: 109
  - symbol: Sn # 116
    coordinates: [  0.380271395927974,  0.051363160888456,  0.886791872842850 ]
    mass: 118.710000
    reduced_to: 109
  - symbol: Sn # 117
    coordinates: [  0.713604729261308,  0.051363160888456,  0.886791872842850 ]
    mass: 118.710000
    reduced_to: 109
  - symbol: Sn # 118
    coordinates: [  0.046938062594641,  0.551363160888456,  0.886791872842850 ]
    mass: 118.710000
    reduced_to: 109
  - symbol: Sn # 119
    coordinates: [  0.380271395927974,  0.551363160888456,  0.886791872842850 ]
    mass: 118.710000
    reduced_to: 109
  - symbol: Sn # 120
    coordinates: [  0.713604729261308,  0.551363160888456,  0.886791872842850 ]
    mass: 118.710000
    reduced_to: 109

displacements:
- atom:    1
  displacement:
    [   0.0100000000000000,  0.0000000000000000,  0.0000000000000000 ]
  forces:
  - [  -0.0167293585836887,  0.0142413964495063,  0.1024880185723305 ]
  - [  -0.0056289751082659,  0.0142381191253662,  0.1022398769855499 ]
  - [  -0.0056188041344285,  0.0142140034586191,  0.1028069332242012 ]
  - [  -0.0054309759289026,  0.0142253898084164,  0.1025232970714569 ]
  - [  -0.0055706743150949,  0.0142270075157285,  0.1025106459856033 ]
  - [  -0.0055713523179293,  0.0142236575484276,  0.1025374904274940 ]
  - [  -0.0055218767374754,  0.0142291374504566,  0.1025074198842049 ]
  - [  -0.0055190585553646,  0.0142214316874743,  0.1025361791253090 ]
  - [  -0.0055194087326527,  0.0142270419746637,  0.1025333330035210 ]
  - [  -0.0055232755839825,  0.0142252268269658,  0.1025252640247345 ]
  - [  -0.0055178580805659,  0.0142254000529647,  0.1025232076644897 ]
  - [  -0.0055181970819831,  0.0142262727022171,  0.1025245413184166 ]
  - [  -0.0045628026127815,  0.0130784092471004,  0.0466562882065773 ]
  - [  -0.0050401878543198,  0.0130541119724512,  0.0466677434742451 ]
  - [  -0.0050477571785450,  0.0131261209025979,  0.0466416478157043 ]
  - [  -0.0045350827276707,  0.0130983917042613,  0.0466553233563900 ]
  - [  -0.0050320010632277,  0.0131176672875881,  0.0466610640287399 ]
  - [  -0.0050384812057018,  0.0130566041916609,  0.0466472133994102 ]
  - [  -0.0049165599048138,  0.0130983274430037,  0.0466523803770542 ]
  - [  -0.0049152267165482,  0.0130864959210157,  0.0466521605849266 ]
  - [  -0.0049102343618870,  0.0130809266120195,  0.0466607809066772 ]
  - [  -0.0049166297540069,  0.0130764655768871,  0.0466559641063213 ]
  - [  -0.0049151144921780,  0.0130923464894295,  0.0466473475098610 ]
  - [  -0.0049101100303233,  0.0130942063406110,  0.0466571897268295 ]
  - [   0.0009993184357882, -0.0194797851145267, -0.1086005717515945 ]
  - [   0.0009361477568746, -0.0195323862135410, -0.1085431948304176 ]
  - [   0.0009989561513066, -0.0195794887840748, -0.1084932163357735 ]
  - [   0.0009997319430113, -0.0195848122239113, -0.1086023375391960 ]
  - [   0.0009359195828438, -0.0195319596678019, -0.1085410639643669 ]
  - [   0.0009993249550462, -0.0194849818944931, -0.1084884405136108 ]
  - [   0.0011026770807803, -0.0195336602628231, -0.1085448935627937 ]
  - [   0.0004039634950459, -0.0198989566415548, -0.1089308559894562 ]
  - [   0.0004117018543184, -0.0191687047481537, -0.1081602573394775 ]
  - [   0.0010798359289765, -0.0195292979478836, -0.1085445061326027 ]
  - [   0.0003087148070335, -0.0191258713603020, -0.1089822798967361 ]
  - [   0.0003156061284244, -0.0199334248900414, -0.1081082671880722 ]
  - [   0.0054314401932061, -0.0160750262439251, -0.0399741493165493 ]
  - [   0.0044572800397873, -0.0160708185285330, -0.0398912057280540 ]
  - [   0.0044609829783440, -0.0160800330340862, -0.0400617085397243 ]
  - [   0.0047354046255350, -0.0160744357854128, -0.0399724468588829 ]
  - [   0.0047323643229902, -0.0160744823515415, -0.0399774126708508 ]
  - [   0.0047309789806604, -0.0160751007497311, -0.0399672836065292 ]
  - [   0.0047705117613077, -0.0160831566900015, -0.0399569422006607 ]
  - [   0.0047660651616752, -0.0160747338086367, -0.0399741753935814 ]
  - [   0.0047763944603503, -0.0160670932382345, -0.0399712100625038 ]
  - [   0.0047315936535597, -0.0160736497491598, -0.0399253889918327 ]
  - [   0.0047380076721311, -0.0160743854939938, -0.0399736724793911 ]
  - [   0.0047312653623521, -0.0160752031952143, -0.0400210097432137 ]
  - [  -0.0100916195660830, -0.0395744070410728,  0.0371908619999886 ]
  - [  -0.0100865326821804, -0.0395721010863781,  0.0374018624424934 ]
  - [  -0.0100997947156429, -0.0396032743155956,  0.0369102582335472 ]
  - [  -0.0098383734002709, -0.0395915284752846,  0.0371614806354046 ]
  - [  -0.0097917951643467, -0.0395954214036465,  0.0371562018990517 ]
  - [  -0.0097898505628109, -0.0395797081291676,  0.0371661558747292 ]
  - [  -0.0098714334890246, -0.0397397167980671,  0.0369917638599873 ]
  - [  -0.0098749082535505, -0.0394332520663738,  0.0373317524790764 ]
  - [  -0.0098091159015894, -0.0395876318216324,  0.0371607169508934 ]
  - [  -0.0098257549107075, -0.0395439714193344,  0.0372166894376278 ]
  - [  -0.0098219700157642, -0.0396279320120811,  0.0371088422834873 ]
  - [  -0.0097736995667219, -0.0395858883857727,  0.0371610149741173 ]
  - [   0.0147958658635616, -0.0557349659502506, -0.0359228774905205 ]
  - [   0.0132573042064905, -0.0569524466991425, -0.0350289195775986 ]
  - [   0.0147445714101195, -0.0581043884158134, -0.0341911315917969 ]
  - [   0.0132184829562902, -0.0565262734889984, -0.0349681377410889 ]
  - [   0.0133333560079336, -0.0569519735872746, -0.0350297912955284 ]
  - [   0.0132190063595772, -0.0573811568319798, -0.0350873619318008 ]
  - [   0.0134599786251783, -0.0569523870944977, -0.0350200459361076 ]
  - [   0.0132262744009495, -0.0569766052067280, -0.0351217910647392 ]
  - [   0.0132267791777849, -0.0569295696914196, -0.0349417403340340 ]
  - [   0.0133120575919747, -0.0569526031613350, -0.0350298285484314 ]
  - [   0.0133003089576960, -0.0569489486515522, -0.0350184738636017 ]
  - [   0.0133032351732254, -0.0569582469761372, -0.0350337699055672 ]
  - [   0.0127439461648464,  0.0387948453426361, -0.0417775958776474 ]
  - [   0.0110691897571087,  0.0401409827172756, -0.0407857373356819 ]
  - [   0.0126871997490525,  0.0414223298430443, -0.0398466400802135 ]
  - [   0.0110441399738193,  0.0397208556532860, -0.0407185479998589 ]
  - [   0.0111576113849878,  0.0401402786374092, -0.0407847575843334 ]
  - [   0.0110455099493265,  0.0405614711344242, -0.0408450625836849 ]
  - [   0.0112993326038122,  0.0401431396603584, -0.0407781526446342 ]
  - [   0.0110401213169098,  0.0401704944670200, -0.0408849120140076 ]
  - [   0.0110402498394251,  0.0401171483099461, -0.0406931079924107 ]
  - [   0.0111319310963154,  0.0401386767625809, -0.0407899767160416 ]
  - [   0.0111192902550101,  0.0401349402964115, -0.0407764241099358 ]
  - [   0.0111247356981039,  0.0401449799537659, -0.0407955981791019 ]
  - [  -0.0128351673483849,  0.0575270354747772,  0.0350773707032204 ]
  - [  -0.0127956457436085,  0.0575306378304958,  0.0352839455008507 ]
  - [  -0.0128106698393822,  0.0575525648891926,  0.0347975865006447 ]
  - [  -0.0125380735844374,  0.0575438067317009,  0.0350416600704193 ]
  - [  -0.0124925766140223,  0.0575488768517971,  0.0350394509732723 ]
  - [  -0.0124908918514848,  0.0575290471315384,  0.0350455641746521 ]
  - [  -0.0125536629930139,  0.0576944015920162,  0.0348905026912689 ]
  - [  -0.0125569850206375,  0.0573848225176334,  0.0351984128355980 ]
  - [  -0.0125094866380095,  0.0575403869152069,  0.0350431799888611 ]
  - [  -0.0125295091420412,  0.0574965551495552,  0.0350957214832306 ]
  - [  -0.0125267654657364,  0.0575784705579281,  0.0349921360611916 ]
  - [  -0.0124736074358225,  0.0575384236872196,  0.0350423231720924 ]
  - [   0.0024852163624018,  0.0018456187099218, -0.0022645937278867 ]
  - [   0.0025441409088671,  0.0067565869539976,  0.0008467808365822 ]
  - [   0.0003079350572079,  0.0042716730386019, -0.0007292497903109 ]
  - [   0.0000644839601591,  0.0048487950116396, -0.0006209379062057 ]
  - [   0.0000638924248051,  0.0036955345422029, -0.0008388403803110 ]
  - [   0.0003412548103370,  0.0042717773467302, -0.0007279561832547 ]
  - [   0.0003948543162551,  0.0042698867619038, -0.0007430762052536 ]
  - [   0.0002583905588835,  0.0042680129408836, -0.0007202904671431 ]
  - [   0.0002644236665219,  0.0042821504175663, -0.0007331334054470 ]
  - [   0.0002619250444695,  0.0042758043855429, -0.0007390077225864 ]
  - [   0.0002762127551250,  0.0042707128450274, -0.0007396792061627 ]
  - [   0.0002809854922816,  0.0042638899758458, -0.0007129847072065 ]
  - [   0.0048894616775215,  0.0054468531161547,  0.0019245091825724 ]
  - [   0.0049629705026746,  0.0002418495714664,  0.0054873581975698 ]
  - [   0.0023900433443487,  0.0028803423047066,  0.0036790771409869 ]
  - [   0.0021551423706114,  0.0023357952013612,  0.0037844432517886 ]
  - [   0.0021549775265157,  0.0034217960201204,  0.0035657808184624 ]
  - [   0.0024192868731916,  0.0028785052709281,  0.0036763986572623 ]
  - [   0.0024805506691337,  0.0028847439680248,  0.0036635338328779 ]
  - [   0.0023383116349578,  0.0028887256048620,  0.0036906255409122 ]
  - [   0.0023461645469069,  0.0028717690147460,  0.0036772321909666 ]
  - [   0.0023443929385394,  0.0028738155961037,  0.0036692288704216 ]
  - [   0.0023575788363814,  0.0028764582239091,  0.0036687138490379 ]
  - [   0.0023605902679265,  0.0028854052070528,  0.0036961506120861 ]
- atom:    1
  displacement:
    [  -0.0100000000000000,  0.0000000000000000,  0.0000000000000000 ]
  forces:
  - [   0.0056886281818151,  0.0142254950478673,  0.1024443581700325 ]
  - [  -0.0054215323179960,  0.0142140109091997,  0.1028041392564774 ]
  - [  -0.0054112588986754,  0.0142384963110089,  0.1022369787096977 ]
  - [  -0.0056091118603945,  0.0142253646627069,  0.1025244891643524 ]
  - [  -0.0054684989154339,  0.0142236249521375,  0.1025374159216881 ]
  - [  -0.0054692085832357,  0.0142273148521781,  0.1025105416774750 ]