4
Lattice="4.014200909748857 0.0893757386513387 -3.895158374103161 -0.6574646004885825 3.9610022632828725 -3.8951580940300037 -0.07407052191373083 -0.08937618966477111 5.592904162537255" Properties=species:S:1:pos:R:3:forces:R:3 structure_index=0 total_energy=-13.024410247802734 stress="0.07490386813879013 -0.007995927706360817 0.015372675843536854 -0.007995879277586937 0.0718856006860733 0.018547825515270233 0.015372611582279205 0.018547525629401207 0.04585275799036026" pbc="T T T"
Li      -0.00000000       0.00000002      -0.00000001       0.00000083      -0.00000052      -0.00000003
Li       2.80924926       1.01259427      -1.09870622      -0.00000048       0.00000014      -0.00000009
Sn       1.67836816       2.02518902      -3.89515824      -0.00000122       0.00000029       0.00000022
Sn       0.47341653       2.94840750      -1.09870608       0.00000088       0.00000009      -0.00000010
4
Lattice="3.289417660468896 0.044271239989753776 5.7726691972542974e-09 -0.05537271721305988 3.2892495396503376 6.108487519850664e-08 1.5784586898568237e-08 1.675833033306923e-07 9.050182085169338" Properties=species:S:1:pos:R:3:forces:R:3 structure_index=1 total_energy=-14.291661262512207 stress="0.02335512638092041 -0.018032807856798172 8.998068210530619e-07 -0.01803276687860489 0.022259214892983437 3.105931227764813e-07 9.170296380034415e-07 3.1898690622256254e-07 0.013821933418512344" pbc="T T T"
Li       0.00000002       0.00000001       0.00000003      -0.00000003      -0.00000018      -0.00000088
Sn       1.61702248       1.66676051       7.06588033       0.00000013       0.00000007       0.03564221
Sn      -0.00000000       0.00000009       4.52509104      -0.00000005      -0.00000015      -0.00000058
Sn       1.61702248       1.66676042       1.98430180      -0.00000003       0.00000027      -0.03564075
6
Lattice="5.3852442119432276 -0.03788255342867912 -1.6151596169252822 -2.990715936891054 4.478605619638436 -1.6151596387429394 0.020427062887933462 0.03788256134917454 5.622204153404404" Properties=species:S:1:pos:R:3:forces:R:3 structure_index=2 total_energy=-17.40044593811035 stress="-0.018964998424053192 -0.013094820082187653 0.00952516682446003 -0.013095228932797909 -0.03618885576725006 0.017666177824139595 0.009525316767394543 0.017666272819042206 -0.02475615032017231" pbc="T T T"
Li      -0.72511669       3.66773790      -1.05044687       0.00730570       0.01354925       0.02404193
Li       3.14007203       0.81086772       3.44233177      -0.00730571      -0.01354917      -0.02404173
Li       0.01863359       1.44737637       2.00352224      -0.02512790       0.01354897      -0.00000056
Li       2.39632174       3.03122927       0.38836264       0.02512729      -0.01354879       0.00000086
Sn       0.59863206       1.11018073      -0.80757979      -0.00000010      -0.00000037      -0.00000024
Sn       1.79589622       3.33054233      -2.42273945       0.00000072       0.00000011      -0.00000027
105
Lattice="11.980271324689648 6.6941451588435e-08 6.916812858919755 3.9934238143518033 11.295108257957732 6.916812899896155 -1.6829753597492002e-07 -6.881866175634824e-08 13.83362600933942" Properties=species:S:1:pos:R:3:forces:R:3 structure_index=3 total_energy=-277.4920349121094 stress="0.0004461358767002821 -8.509283020430303e-07 1.1756930007322808e-07 -7.168923730205279e-07 0.000445503304945305 4.420005552674411e-07 4.343313548815786e-07 1.8438535676068568e-07 0.0004460746713448316" pbc="T T T"
Li      10.61167401       1.93548893       9.28729298      -0.01168878       0.01653046       0.02024466
Li       5.36202098       9.35961936      18.37995886       0.01168848      -0.01653014      -0.02024582
Li      13.23650048       9.35961943      13.83362584      -0.02337728      -0.01652997       0.00000043
Li       2.73719450       1.93548885      13.83362597       0.02337662       0.01653053       0.00000010
Li      10.61167389       1.93548896      18.37995881      -0.01168900       0.01652984      -0.02024608
Li       5.36202107       9.35961942       9.28729300       0.01168806      -0.01652939       0.02024413
Li      10.92588092       7.72576461      18.92418113       0.00739839       0.00523204       0.01281709
Li      11.98027125      10.70803086      20.75043886       0.00000029      -0.01569659      -0.00000021
Li      10.92588083       7.72576455      22.57669640       0.00740095       0.00523181      -0.01281612
Li      14.08905186       7.72576463      20.75043884      -0.01479880       0.00523301       0.00000032
Li       7.98684749       8.44201121      13.83362585       0.00000102      -0.03334822      -0.00000009
Li       6.66952782       4.71606842      11.55196128       0.01572026       0.01111690       0.02722973
Li      10.62148690       4.71606846      13.83362585      -0.03144152       0.01111724      -0.00000017
Li       6.66952776       4.71606842      16.11529053       0.01572141       0.01111676      -0.02722804
Li       8.88654446       6.28373603      15.39194699       0.01307923       0.00924683       0.02265061
Li       7.98684745       3.73900840      13.83362590      -0.00000021      -0.02774143      -0.00000001
Li       8.88654456       6.28373609      12.27530480       0.01307875       0.00924680      -0.02265103
Li       6.18745333       6.28373604      13.83362589      -0.02615591       0.00924642      -0.00000007
Li       9.25104418       3.61373887       6.91681288      -0.04529278       0.00748570       0.00000019
Li       0.11595187       0.08199037       9.30730054       0.02666664       0.01885622      -0.03226178
Li       6.49074700       7.51738863       6.91681289      -0.00803991      -0.04519816      -0.00000030
Li       0.11595198       0.08199043       4.52632544       0.02666617       0.01885613       0.03226206
Li       8.00238254       0.08199046       9.07955831      -0.04127245       0.01885567      -0.00696362
Li       1.36461361       3.61373878       2.36358004       0.02264644       0.00748535       0.03922430
Li       3.86193672       0.08199044      11.47004572       0.01460624       0.01885596      -0.03922524
Li       2.74476219       7.51738866       4.75406756       0.00401923      -0.04519847       0.00696300
Li       8.00238256       0.08199048       4.75406749      -0.04127208       0.01885614       0.00696394
Li       2.74476215       7.51738856       9.07955827       0.00401963      -0.04519808      -0.00696293
Li       3.86193679       0.08199045       2.36358001       0.01460708       0.01885567       0.03922416
Li       1.36461353       3.61373878      11.47004578       0.02264629       0.00748586      -0.03922538
Li      11.98027120       5.79775980      20.75043892      -0.00000056      -0.01384101      -0.00000085
Li      13.24060483       9.36252172      22.93340074       0.00652607       0.00461103       0.01129980
Li       9.45960395       9.36252167      20.75043894      -0.01304905       0.00461160      -0.00000092
Li      13.24060491       9.36252172      18.56747693       0.00652433       0.00461238      -0.01129908
Li      12.16282750       8.60041798      16.33455375      -0.00985766      -0.00697070      -0.00080468
Li       5.25477874       0.65269116      13.83362598       0.00939416       0.00762708       0.00000008
Li      12.16282764       8.60041802      11.33269785      -0.00985713      -0.00697058       0.00080240
Li       2.36695605       4.73668934      13.83362597       0.01032125       0.00631405      -0.00000004
Li       9.35288170       0.65269117      16.19966672      -0.00469597       0.00762777      -0.00813596
Li       8.06472464       8.60041803       8.96665696       0.00423239      -0.00697093       0.00893974
Li      10.79679315       4.73668937      18.70059460      -0.00516034       0.00631443      -0.00893669
Li       3.73299046       8.60041794      11.46758500       0.00562385      -0.00697077       0.00813629
Li      10.79679329       4.73668947       8.96665695      -0.00516078       0.00631376       0.00893930
Li       8.06472457       8.60041794      18.70059459       0.00423319      -0.00697091      -0.00893651
Li       9.35288180       0.65269122      11.46758497      -0.00469634       0.00762641       0.00813600
Li       3.73299037       8.60041791      16.19966674       0.00562421      -0.00697049      -0.00813616
Li      -0.00000004      -0.00000005       0.00000001      -0.00000068       0.00000088       0.00000077
Li       2.30047023       3.42232650       6.91681293       0.01431033      -0.00505941       0.00000035
Li       4.83990052       3.42232652       5.45067212      -0.00715527      -0.00505965       0.01239339
Li       3.99342374       1.02812866       6.91681294       0.00000039       0.01517856       0.00000013
Li       4.83990053       3.42232649       8.38295370      -0.00715496      -0.00505962      -0.01239320
Li       2.60587024       4.78607410       4.51349965       0.00289514      -0.00409496       0.00501453
Li       5.38097723       0.86147999       9.32012625      -0.00289532       0.00409520      -0.00501574
Li       2.60587019       4.78607412       9.32012623       0.00289509      -0.00409498      -0.00501518
Li       5.38097731       0.86148002       4.51349963      -0.00289531       0.00409499       0.00501497
Li       1.21831665       0.86148000       6.91681300       0.00579173       0.00409601       0.00000018
Li       6.76853090       4.78607417       6.91681290      -0.00579132      -0.00409526       0.00000030
Li       3.99342381       8.77041238       6.91681290       0.00000011      -0.03049588       0.00000062
Li       1.19015309       0.84156532       2.06140561       0.01437499       0.01016470       0.02489822
Li       9.59996517       0.84156536       6.91681287      -0.02875040       0.01016485       0.00000073
Li       1.19015295       0.84156525      11.77222033       0.01437537       0.01016522      -0.02489966
Li      11.50930209       5.86653634      11.44233934      -0.03616339       0.01734479      -0.00744398
Li       4.15470537       5.86653623      15.68851781       0.01163470       0.01734469      -0.03504009
Li       9.36745737       8.89556208      16.22491249       0.00429893      -0.03987627       0.00744343
Li       6.91592513       1.96158182      11.97873398       0.02023037       0.00518764       0.03504056
Li      11.50930206       5.86653630      16.22491241      -0.03616309       0.01734472       0.00744331
Li       4.15470542       5.86653623      11.97873401       0.01163457       0.01734481       0.03504016
Li       6.91592509       1.96158181      15.68851782       0.02023063       0.00518790      -0.03503999
Li       9.36745743       8.89556210      11.44233937       0.00429825      -0.03987627      -0.00744398
Li      10.12869214       1.96158181      13.83362591      -0.04046109       0.00518699      -0.00000030
Li       5.22562777       8.89556202      13.83362595      -0.00859624      -0.03987686       0.00000035
Li       8.29653511       5.86653629       9.58744743       0.02452771       0.01734475       0.02759622
Li       8.29653498       5.86653627      18.07980426       0.02452847       0.01734455      -0.02759504
Li      13.21451297       6.21642318      13.83362584      -0.00796658       0.02554941       0.00000002
Li       4.23356961       2.99358586      16.38734052      -0.00673210      -0.00476039      -0.02546200
Li      10.26573760      10.38662155      13.83362579       0.02143217      -0.01602974      -0.00000001
Li       4.23356969       2.99358590      11.27991145      -0.00673185      -0.00476040       0.02546255
Li      12.07506796       2.99358595      15.80720256      -0.01868243      -0.00476135       0.01856161
Li       5.37301477       6.21642314       9.30633472       0.00398367       0.02555010       0.00690061
Li       7.65190468       2.99358589      18.36091717       0.02541765      -0.00475942      -0.00690366
Li       6.84740252      10.38662150      11.86004919      -0.01071640      -0.01602856      -0.01856137
Li      12.07506803       2.99358598      11.86004918      -0.01868578      -0.00476040      -0.01856121
Li       6.84740247      10.38662155      15.80720257      -0.01071665      -0.01602858       0.01856154
Li       7.65190478       2.99358594       9.30633465       0.02541701      -0.00476037       0.00690059
Li       5.37301460       6.21642307      18.36091729       0.00398540       0.02555072      -0.00690393
Sn      10.82997181       7.65794665      13.83362586      -0.00300898      -0.00212636       0.00000059
Sn       5.14372327       3.63716162      13.83362587       0.00300500       0.00212517      -0.00000012
Sn       9.40840959       3.63716172      16.29584378      -0.00150283       0.00212467      -0.00260064
Sn       6.56528539       7.65794657      11.37140805       0.00150464      -0.00212685       0.00260082
Sn       9.40840957       3.63716169      11.37140800      -0.00150036       0.00212616       0.00260159
Sn       6.56528545       7.65794651      16.29584365       0.00150034      -0.00212623      -0.00260017
Sn      11.98027102       2.83204959      20.75043900       0.00000042       0.00606686       0.00000066
Sn      14.63865392      10.35109154      25.35489289      -0.00285929      -0.00202055      -0.00495296
Sn       6.66350569      10.35109155      20.75043898       0.00571943      -0.00202147       0.00000115
Sn      14.63865403      10.35109167      16.14598451      -0.00285857      -0.00202080       0.00495292
Sn      13.40828973       6.45180795      23.22383970       0.00591169      -0.00836148       0.01024287
Sn      10.55225261      10.49085454      18.27703795      -0.00591244       0.00836181      -0.01024239
Sn      13.40828972       6.45180800      18.27703795       0.00591346      -0.00836169      -0.01024324
Sn      10.55225270      10.49085456      23.22383968      -0.00591510       0.00836227       0.01024191
Sn      14.83630834      10.49085456      20.75043892       0.01182267       0.00836197      -0.00000036
Sn       9.12423400       6.45180785      20.75043899      -0.01182450      -0.00836102      -0.00000126
Sn       3.99342379       5.83039249       6.91681287      -0.00000122      -0.02311006       0.00000115
Sn       2.57609171       1.82157194       4.46192178       0.01089410       0.00770338       0.01886962
Sn       6.82808788       1.82157194       6.91681294      -0.02178872       0.00770310       0.00000087
Sn       2.57609168       1.82157192       9.37170414       0.01089251       0.00770394      -0.01886930
4
Lattice="3.840342938111049 -0.7878293588469035 -2.491507511992699 -1.2081439022739449 3.4706535593514176 -2.8410337112935395 0.35779215395155933 0.7878296663677368 4.563751968364884" Properties=species:S:1:pos:R:3:forces:R:3 structure_index=4 total_energy=-11.291616439819336 stress="0.03447914496064186 -0.018677297979593277 0.03808727115392685 -0.018677515909075737 0.03181597590446472 0.037839777767658234 0.03808722272515297 0.03783944621682167 -0.023875948041677475" pbc="T T T"
Li       0.65959000       1.45149780       3.07216435       0.01737834       0.01825913      -0.03655609
Li       1.98949987       2.80698572       0.37791564      -0.01844408      -0.01825225       0.03601535
Li       3.06314791       1.34141222      -1.80390877       0.00452563      -0.00000024       0.00223345
Sn       1.75041580       0.00000010       0.86402410      -0.00345990      -0.00000665      -0.00169270
6
Lattice="5.406761780483502 2.9279285486934464e-08 3.121595297500212 1.8022538979504803 5.097543994582909 3.1215953953301296 -6.108956337509651e-08 7.661984512397639e-08 6.243190700810649" Properties=species:S:1:pos:R:3:forces:R:3 structure_index=5 total_energy=-21.48116111755371 stress="0.02005222626030445 -3.1452483995053626e-07 -1.6864830740814796e-06 -4.204665913221106e-07 0.020057497546076775 2.0239626863371996e-08 -1.2130778941354947e-06 3.348846462358779e-07 0.02005009539425373" pbc="T T T"
Li       0.00000000      -0.00000000       0.00000000       0.00000036      -0.00000035      -0.00000014
Sn       1.80225390       1.27438602       3.12159535      -0.00000030       0.00000027      -0.00000021
Sn       4.50693738       3.18688615       7.80624457      -0.01252959      -0.00886026      -0.02170226
Sn       4.50693741       3.18688612       4.68013682      -0.01253199      -0.00886050       0.02170395
Sn       1.79964864       3.18688614       6.24319072       0.02506158      -0.00886055      -0.00000093
Sn       3.60450782       0.63442981       6.24319067      -0.00000000       0.02658140      -0.00000039
24
Lattice="7.780660695179598 4.0163977991863675e-07 4.4921666030986716 2.593553799396891 7.335676521012696 4.492166853090053 3.697694646750286e-07 5.676421629489764e-07 8.984332565737844" Properties=species:S:1:pos:R:3:forces:R:3 structure_index=6 total_energy=-69.89608001708984 stress="0.014373701997101307 -7.577102678624215e-08 -5.51673053905688e-07 -9.020482139021624e-09 0.014371021650731564 2.0205879991408437e-06 -6.878897238493664e-07 1.9753417745960178e-06 0.014378620311617851" pbc="T T T"
Li       3.89033051       0.00000049       6.73824959      -0.00000004      -0.00000025      -0.00000093
Li       3.89033034       0.00000020       2.24608333      -0.00000023       0.00000073      -0.00000042
Li       0.00000016       0.00000028       4.49216630       0.00000132      -0.00000076      -0.00000094
Li       5.18710744       3.66783872       8.98433298      -0.00000048       0.00000057       0.00000001
Li       4.82350017       6.16160832      13.47649944      -0.02031117      -0.01436188      -0.00000026
Li       9.25924153       6.16160821      10.91552315       0.01015551      -0.01436163      -0.01759014
Li       9.25924172       6.16160856      16.03747609       0.01015425      -0.01436232       0.01759067
Li       3.70852682       3.00798827       6.42335647      -0.01015506       0.01436151      -0.01758918
Li       3.70852705       3.00798865      11.54530937      -0.01015598       0.01436038       0.01759069
Li       8.14426837       3.00798855       8.98433309       0.02031194       0.01436259      -0.00000048
Li       5.55071467       1.17406916       4.49216658       0.02031156       0.01436235       0.00000021
Li       1.11497334       1.17406926       7.05314285      -0.01015501       0.01436158       0.01758916
Li       1.11497313       1.17406893       1.93118997      -0.01015526       0.01436171      -0.01758955
Li       6.66568803       4.32768919      11.54530957       0.01015490      -0.01436199       0.01758826
Li       6.66568783       4.32768888       6.42335667       0.01015554      -0.01436085      -0.01759043
Li       2.22994648       4.32768895       8.98433292      -0.02030822      -0.01436327      -0.00000005
Sn       7.78066116       6.23606287      13.47649960      -0.00000038       0.04488171       0.00000095
Sn       3.28586316       1.58915139       8.98433275       0.04231468      -0.01496024      -0.00000112
Sn       6.13772944       1.58915137       7.33780719      -0.02115942      -0.01496175       0.03664625
Sn       6.13772961       1.58915156      10.63085869      -0.02115828      -0.01496047      -0.03664577
Sn       2.59355373       1.09961460       4.49216643       0.00000090      -0.04488143      -0.00000059
Sn       7.08835172       5.74652612       8.98433318      -0.04231581       0.01496146       0.00000158
Sn       4.23648543       5.74652614      10.63085887       0.02115883       0.01496122      -0.03664563
Sn       4.23648531       5.74652595       7.33780734       0.02115596       0.01496105       0.03664775
2
Lattice="3.3066647748718445 -3.165285908285962e-08 -3.136289700206519e-09 -1.653332414848101 2.8636555345228545 1.5057277982326023e-09 -4.41893497790415e-09 -1.0154911367232043e-10 4.642072281213262" Properties=species:S:1:pos:R:3:forces:R:3 structure_index=7 total_energy=-6.436871528625488 stress="-0.05150523781776428 4.65439552499447e-06 -1.4571214990155568e-07 4.71430757897906e-06 -0.051497675478458405 -2.8364189574858756e-07 -1.1065363736406653e-07 -3.2788304338282614e-07 0.1677529364824295" pbc="T T T"
Li       0.00000000      -0.00000000       0.00000000      -0.00000008       0.00000006      -0.00000003
Sn       1.65333237       0.95455183       2.32103614       0.00000009      -0.00000006       0.00000003
8
Lattice="5.138594948800392 -1.5520425857212242e-07 2.9667692861246464 1.7128648466716112 4.844713705103867 2.9667692686896054 3.4541041250630646e-09 -1.8911056655518306e-08 5.933538566266608" Properties=species:S:1:pos:R:3:forces:R:3 structure_index=8 total_energy=-18.825246810913086 stress="-0.04535456374287605 -4.4887289618600335e-07 -2.376225864963999e-07 -3.022302621502604e-07 -0.04535441845655441 3.4980649843419087e-07 -3.824104339855694e-07 3.97771458438001e-07 -0.045357026159763336" pbc="T T T"
Li       2.56929747      -0.00000008       1.48338465       0.00000075       0.00000008       0.00000029
Li       0.85643243       2.42235686       1.48338464       0.00000009       0.00000053       0.00000051
Li       0.00000000      -0.00000001       2.96676929      -0.00000044      -0.00000018      -0.00000037
Li       0.85643242       2.42235684       4.45015392       0.00000016       0.00000059      -0.00000039
Li       2.56929748      -0.00000009       4.45015393       0.00000077      -0.00000009      -0.00000041
Li       3.42572990       2.42235678       2.96676927      -0.00000016      -0.00000031      -0.00000000
Li       3.42572990       2.42235677       5.93353856      -0.00000006      -0.00000011       0.00000003
Sn      -0.00000000      -0.00000000      -0.00000001      -0.00000111      -0.00000053       0.00000036
6
Lattice="3.257648377743341 0.006038876051207232 -12.930954504244955 -0.04425461963170692 3.2573536826455207 -12.930954346817531 -0.005946871849222951 -0.006038759415120044 13.334984963104395" Properties=species:S:1:pos:R:3:forces:R:3 structure_index=9 total_energy=-20.911087036132812 stress="0.025690853595733643 -0.00039836569339968264 0.0031426597852259874 -0.00039834080962464213 0.025710705667734146 0.00320549588650465 0.003141493536531925 0.00320506002753973 0.0007900673663243651" pbc="T T T"
Li      -0.00000004      -0.00000001       0.00000001      -0.00000068       0.00000033      -0.00000015
Li       2.42919919       0.81584825      -6.26346204       0.00000038      -0.00000018      -0.00000135
Sn       1.37001472       1.39133140     -11.02609838       0.00375848       0.00381705      -0.03024584
Sn       1.01492986       2.68187046      -8.16831773      -0.00375885      -0.00381679       0.03024712
Sn       1.84337909       1.87206114     -14.83581049      -0.00375871      -0.00381771       0.03024697
Sn       0.54156551       2.20114073      -4.35860600       0.00375938       0.00381730      -0.03024672
6
Lattice="4.603714774215091 0.07148985404566385 2.1685886236720595 3.5045613409215894 2.986193436021027 2.1685885965641116 -0.0057500241467230324 -0.002168431749304779 8.662236677512078" Properties=species:S:1:pos:R:3:forces:R:3 structure_index=10 total_energy=-17.814714431762695 stress="0.021623779088258743 0.0021112188696861267 -7.871779234847054e-05 0.0021115452982485294 0.016821816563606262 -3.134550206596032e-05 -7.878142059780657e-05 -3.149509211652912e-05 0.06278197467327118" pbc="T T T"
Li       6.77635480       2.55540717       4.33673629       0.03119673       0.01176415      -0.00040330
Li       1.32617131       0.50010773       8.66267760      -0.03119692      -0.01176444       0.00040281
Li       6.77223543       2.55385363       8.66664998       0.03306371       0.01246860       0.00068645
Li       1.33029064       0.50166120       4.33276384      -0.03306371      -0.01246884      -0.00068371
Sn       4.04877991       1.52682105       8.66477446       0.00142225       0.00053658       0.00019091
Sn       4.05374619       1.52869379       4.33463954      -0.00142206      -0.00053607      -0.00019315
2
Lattice="3.4525916726 0.0 2.1141026703061982e-16 5.552190868793002e-16 3.4525916726 2.1141026703061982e-16 0.0 0.0 3.4525916726" Properties=species:S:1:pos:R:3:forces:R:3 structure_index=11 total_energy=-6.550165176391602 stress="-0.05836070701479912 -1.7524585871342424e-07 -7.354059050612705e-08 -1.5021105070900376e-07 -0.05836016312241554 3.019863754616381e-07 -3.755276267725094e-08 3.3484499795122247e-07 -0.058360934257507324" pbc="T T T"
Li       0.00000000       0.00000000       0.00000000      -0.00000033      -0.00000040      -0.00000044
Sn       1.72629584       1.72629584       1.72629584       0.00000033       0.00000040       0.00000044
4
Lattice="3.307419975501646 -2.4513654848667958e-08 -4.5032173548195915e-09 -1.65371000898027 2.8643096614965162 1.922216364179067e-08 -1.2598879634046614e-08 5.482446507399418e-08 9.323875719206987" Properties=species:S:1:pos:R:3:forces:R:3 structure_index=12 total_energy=-12.855576515197754 stress="0.049281202256679535 -6.883323067086167e-07 -6.437493311750586e-07 -8.053435180954693e-07 0.04925689101219177 2.894725525948161e-07 -6.428297183447285e-07 3.0152568797348067e-07 -0.02880551666021347" pbc="T T T"
Li       1.65370998       0.95476989       2.33096891       0.00000021       0.00000014      -0.00000063
Li      -0.00000002       1.90953981       6.99290673      -0.00000002      -0.00000032      -0.00000009
Sn       0.00000000      -0.00000000       0.00000004      -0.00000020       0.00000013       0.00000077
Sn      -0.00000001       0.00000003       4.66193790       0.00000001       0.00000005      -0.00000005
3
Lattice="3.30963850721957 -0.002707710283059933 -4.0060319759674545 -0.4301667534130813 3.2815654963608605 -4.00603205382087 0.0023779868814470945 0.002707692826691526 5.1963444172988575" Properties=species:S:1:pos:R:3:forces:R:3 structure_index=13 total_energy=-8.828255653381348 stress="0.00994679145514965 0.01155367586761713 -0.028233125805854797 0.011553717777132988 0.012964170426130295 -0.0321468822658062 -0.02823333814740181 -0.03214704245328903 0.07836177200078964" pbc="T T T"
Li       2.86816898       3.26598729      -7.98061433      -0.00494996      -0.00563595       0.01377213
Li       0.97112669       1.10582306      -2.70213773       0.00494979       0.00563669      -0.01377216
Sn       1.91964783       2.18590521      -5.34137601       0.00000018      -0.00000074       0.00000005
12
Lattice="4.417029862226573 0.15154735605812905 -13.333998355488674 0.02873153413135015 4.419536822730915 -13.333998850821004 -0.1473909941139203 -0.15154727272433907 14.045780756276054" Properties=species:S:1:pos:R:3:forces:R:3 structure_index=14 total_energy=-39.12044906616211 stress="0.030095264315605164 -0.0006931176176294684 0.004045700188726187 -0.0006930711097083986 0.030058937147259712 0.004158094525337219 0.004046127665787935 0.004157815594226122 0.006506430916488171" pbc="T T T"
Li       0.90929844       2.03242943      -5.45444670      -0.00110037      -0.00113120       0.00660194
Li       1.93267755       0.88965844       1.56844381      -0.00109995      -0.00113169       0.00660192
Li       3.38907193       2.38710751      -7.16776974       0.00110008       0.00113099      -0.00660096
Li       2.36569284       3.52987846     -14.19066026       0.00110107       0.00113172      -0.00660065
Li       2.66087475       1.63838296      -2.79966294       0.00000015       0.00000066       0.00000008
Li       1.63749562       2.78115394      -9.82255357       0.00000020      -0.00000047       0.00000026
Sn       0.46672565       3.77237772      -2.79966312      -0.00000046      -0.00000038       0.00000073
Sn       3.83164495       0.64715924      -9.82255337      -0.00000087       0.00000033      -0.00000046
Sn       0.16074438       1.26277419      -0.96422867      -0.00230395      -0.00236775       0.01381366
Sn       1.18412341       0.12000316       6.05866191      -0.00230061      -0.00236677       0.01381282
Sn       4.13762605       3.15676269     -11.65798764       0.00230288       0.00236777      -0.01381486
Sn       3.11424685       4.29953369     -18.68087842       0.00230183       0.00236677      -0.01381450
6
Lattice="4.6001378036263585 0.06868631869200535 2.1653099962976072 3.503326254554578 2.9820615436143543 2.1653103497209334 -0.0019429990932575004 -0.0007306965262843494 8.65701919211833" Properties=species:S:1:pos:R:3:forces:R:3 structure_index=15 total_energy=-17.815221786499023 stress="-0.036579031497240067 -0.0019313463708385825 8.194280235329643e-05 -0.0019313284428790212 -0.032175470143556595 3.14900535158813e-05 8.201271703001112e-05 3.135908264084719e-05 -0.013059765100479126" pbc="T T T"
Li       0.24501791       0.09224378       8.29575346       0.02015416       0.00758818      -0.00044121
Li       2.89842981       1.09118521       3.96794463      -0.00808781      -0.00304438      -0.00052300
Li       2.90298290       1.09289975       8.29768751      -0.02015402      -0.00758757       0.00044455
Li       0.25151402       0.09468899       3.96847717       0.00808768       0.00304470       0.00052360
Sn       5.62912319       2.11922196       8.29911675      -0.00386722      -0.00145606       0.00201410
Sn       5.62428479       2.11740014       3.96792534       0.00386719       0.00145513      -0.00201806
5
Lattice="3.4006398278914243 0.05682307758207511 11.798242629153252 1.7139871739716561 2.937655447539456 11.79824247948225 0.09705509921422978 0.05682262331754195 12.278169976356805" Properties=species:S:1:pos:R:3:forces:R:3 structure_index=16 total_energy=-16.66790008544922 stress="0.031092043966054916 0.00018283633107785136 0.0022080864291638136 0.0001828337844926864 0.030877189710736275 0.0012914452236145735 0.0022078671026974916 0.0012912871316075325 0.04594062641263008" pbc="T T T"
Li       2.06545989       1.20927190      14.21761040      -0.00255576      -0.00149634      -0.01759110
Li       3.14622189       1.84202918      21.65704378       0.00255549       0.00149634       0.01759294
Sn      -0.00000000      -0.00000004      -0.00000103       0.00000004       0.00000012      -0.00000284