8
Lattice="4.81005239872027 0.0014029591945415483 0.0004991261600808945 -0.0015453560768736822 5.074698520850372 0.0031085360175381917 -0.0004721150572624467 -0.0017643903872476573 6.088021045352005" Properties=species:S:1:pos:R:3:forces:R:3 structure_index=0 total_energy=-24.013168334960938 stress="-0.04068562388420105 7.611870387336239e-05 5.749622141593136e-05 7.618258678121492e-05 -0.033987246453762054 0.0002459467214066535 5.7513476349413395e-05 0.0002459996903780848 0.0011523347347974777" pbc="T T T"
Li       0.30078347       4.82926289       4.82500619      -0.00011439      -0.01377211      -0.00438865
Li       2.70598421       3.04331014       1.78148577       0.00029431       0.01058270      -0.00550411
Li       0.30098649       4.82670921       1.77077314      -0.00016380      -0.01124130       0.00555436
Li       2.70618291       3.03813618       4.81609750       0.00002629       0.01371459       0.00390774
Ga       0.30176502       2.26437381       3.29724378      -0.00032245      -0.04603997      -0.00038223
Ga       2.70727890       0.52899720       0.25210352       0.00002420       0.04759683       0.00035877
Sn       2.70712417       0.47894780       3.29603153       0.00020088      -0.00592604       0.00025942
Sn       0.30154468       2.31613300       0.25322490       0.00005497       0.00508532       0.00019471
12
Lattice="4.245143860207089 -0.010267035704576077 -0.7653508317054487 -0.12366894257248395 4.235265777523144 -0.7648977767334149 0.037378870426967255 0.055954810383278125 12.292906827781408" Properties=species:S:1:pos:R:3:forces:R:3 structure_index=1 total_energy=-34.44722366333008 stress="-0.01757924072444439 0.006616652011871338 0.00045837232028134167 0.006616633385419846 -0.0034855485428124666 0.0019420064054429531 0.00045833588228560984 0.0019419599557295442 -0.022955890744924545" pbc="T T T"
Li       0.18097784       2.53036386       7.15638716       0.00628373       0.00617726       0.03143115
Li       0.82798355       3.20071148      10.68763793      -0.00439109      -0.00432482      -0.01852445
Li       3.96930177       4.22976366       3.82279810      -0.00220663      -0.00284029      -0.01344665
Li       1.90802248       2.11589248       4.58705825      -0.00027985      -0.00042924      -0.00313323
Li       3.68904356       1.75936741       2.31206705      -0.00071674      -0.00204628      -0.00440102
Li       3.04286510       1.11210649      10.87658791       0.00348592       0.00338283       0.01450495
Ga       1.24717509       1.43486581       0.94103448      -0.00107669      -0.00096570      -0.00172331
Ga       0.57233144       0.75596165       9.34034350       0.00192174       0.00280963       0.01519521
Ga       2.62673707       2.85933719       8.54320126       0.00258978       0.00160893       0.01019071
Ga       1.52562093       3.90221635       2.43320098       0.00057498       0.00222049       0.00678638
Sn       3.29996685       3.53961692       0.13751179      -0.00094543      -0.00112776      -0.00914575
Sn       2.33711562       0.37741863       6.99187629      -0.00523975      -0.00446507      -0.02773397
4
Lattice="4.223463662029335 -1.8429877108256162e-05 -0.001174983163402332 0.00012009852842917599 4.224134474679074 -0.0012452790648617498 0.00018096769770524105 0.0003414682937397797 4.224698401584932" Properties=species:S:1:pos:R:3:forces:R:3 structure_index=2 total_energy=-11.990638732910156 stress="0.0060736071318387985 8.248725498560816e-05 -0.0007903393707238138 8.252635598182678e-05 0.0780174657702446 -0.0011355095775797963 -0.0007903295336291194 -0.0011354876914992929 0.0799541175365448" pbc="T T T"
Li       2.75085457       0.41443180       3.42415524      -0.00037458      -0.00000122       0.00013329
Li       2.75087047       2.52642655       1.31174249      -0.00040744      -0.00006964      -0.00043189
Ga       0.63884597       0.41384816       1.31271247       0.00008933       0.00052653      -0.00022409
Sn       0.63874577       2.52663514       3.42409154       0.00069270      -0.00045568       0.00052269
20
Lattice="6.989684059404036 -0.04004394933881963 -1.75476177034493 -3.593128900084314 6.294884400782698 -1.6537430285859782 0.011531982201108227 -0.04693170581416131 8.241717968985517" Properties=species:S:1:pos:R:3:forces:R:3 structure_index=3 total_energy=-53.42143249511719 stress="-0.003515111282467842 -0.008937097154557705 -0.00011512803757796064 -0.008936925791203976 0.016377901658415794 -0.0053920866921544075 -0.00011511831689858809 -0.005392152350395918 0.013282890431582928" pbc="T T T"
Li       3.12127264       2.72528444       0.70805567      -0.00260179       0.01854578       0.01093453
Li      -2.42276090       4.41063957       1.05959837       0.00264618      -0.00014527       0.00139767
Li      -0.46380812       5.81891482      -0.53229593      -0.00965973      -0.00477051      -0.00547837
Li       3.31858182       1.93169513       5.63020108       0.00438816      -0.00747785       0.00820971
Li       0.46306088       1.48271603       4.95058612      -0.00036635      -0.00201353       0.00240299
Li       1.78122809       3.82301183       3.25555180       0.01506579      -0.00087259       0.00262445
Li       5.53792585       0.91353360      -0.14656393      -0.00856613       0.01299459       0.00115600
Li       4.36487633       1.63959359       2.90462747      -0.00886994      -0.02732719      -0.01156014
Li      -2.63191449       5.05448743       4.16549021       0.00919990       0.01979374      -0.00909063
Li       5.69363512       0.37105426       5.04263939      -0.00655285      -0.00679183      -0.00031345
Li       0.24592386       3.33972288       0.78650993      -0.01155111       0.00232961       0.00851151
Li       1.56805176       3.91524438      -1.55595860       0.00759232       0.00209475      -0.01710769
Li       1.12896093       0.93200791       2.41312773      -0.00404534      -0.01162457       0.00469645
Li      -0.03742733       5.41190248       4.94276175      -0.00635591       0.00821644       0.00819580
Ga      -0.35100921       5.66807104       2.29038709       0.00675251      -0.01092628       0.00422828
Ga       3.49060833       4.98874684       5.14658452       0.01184053       0.01089469      -0.00566002
Ga      -0.89617273       3.23187573       3.24651006       0.00041488       0.00459785       0.01763541
Sn      -1.27777285       3.29399430       6.47557542      -0.00610671      -0.00885127      -0.01806156
Sn       1.32138166       1.10952153      -0.57020212       0.00246239       0.00399982       0.00307612
Sn       2.15879158       5.53226213       0.69325829       0.00431319      -0.00266639      -0.00579712
10
Lattice="3.245856748128527 0.00045841674920804506 -0.00048762933438193295 -0.0023513538827906397 3.2478607194681715 -0.0007798704775973488 0.00043412206692107383 0.0008236590260182268 15.62084244055055" Properties=species:S:1:pos:R:3:forces:R:3 structure_index=4 total_energy=-28.365581512451172 stress="-0.010947479866445065 -0.009200140833854675 -0.0018452036892995238 -0.009200187399983406 -0.01034932304173708 -0.003500994760543108 -0.0018450279021635652 -0.003500842722132802 -0.00778998015448451" pbc="T T T"
Li       1.53605564       3.10847086      11.33509491      -0.00101646      -0.00107497       0.01781096
Li       1.53647780       3.11000551       5.44387931      -0.00118450      -0.00180431      -0.01338852
Li       1.53670036       3.11053003       8.38878527      -0.00153140      -0.00268115       0.00121446
Li       1.53431114       3.10729013      14.35600275       0.00101414       0.00035835       0.00440149
Li       1.53500249       3.10838878       2.42901236      -0.00002930      -0.00049816      -0.00246500
Ga       3.15956094       1.48373579      12.81247060      -0.00022252       0.00084708      -0.00187204
Ga       3.16014041       1.48523315       6.91703653       0.00057689       0.00172340       0.01054358
Ga       3.15923464       1.48440283       9.86127658       0.00191343       0.00201618      -0.00809914
Ga       3.15927900       1.48477344       3.97416019       0.00088304       0.00101148      -0.00538136
Sn       3.15895019       1.48361790       0.58428780      -0.00040332       0.00010212      -0.00276445
7
Lattice="4.3433130631373364 -0.0017034801565756757 -0.0011055938216503127 -2.1691275196606505 4.610478499797805 -0.42435015257162567 0.0008895287704092849 -0.04977358385500031 6.625611194875014" Properties=species:S:1:pos:R:3:forces:R:3 structure_index=5 total_energy=-20.911602020263672 stress="-0.025028305128216743 0.0007694922969676554 -0.0005365057149901986 0.0007694765808992088 0.03977367281913757 -0.021481988951563835 -0.0005366678233258426 -0.02148185856640339 0.03137180209159851" pbc="T T T"
Li      -1.21894422       4.05380324       2.08030545       0.00012944       0.01672370      -0.02377099
Li       0.95195937       3.30578399       3.91694487       0.00129678       0.00879961      -0.03896739
Li       0.95478980       0.81808355       5.38351733      -0.00225943      -0.00836165       0.04055945
Li       3.12269998       0.12128816       0.59781723       0.00063809      -0.01614024       0.02204250
Ga       0.95237735       2.08869476       1.33770232      -0.00008294      -0.00185247      -0.00013932
Sn       3.12279158       1.34760203       3.33114991       0.00103376       0.01392370       0.04116298
Sn      -1.21708940       2.77676651       5.97031669      -0.00075570      -0.01309265      -0.04088721
12
Lattice="4.337769369663096 -0.001595926540655078 0.0021448565813284724 0.0034747863984632968 6.269347025559338 -0.007734899445671475 -0.0031632965054667187 -0.0027023850219420587 8.780545727173502" Properties=species:S:1:pos:R:3:forces:R:3 structure_index=6 total_energy=-36.765419006347656 stress="0.0022234818898141384 0.0005238944431766868 -1.6610694729024544e-05 0.0005239136517047882 0.02542129158973694 -0.00010313477832823992 -1.6594447515672073e-05 -0.00010308103810530156 0.010097220540046692" pbc="T T T"
Li       1.41958604       1.17298704       8.76836534       0.00050737       0.00022317      -0.01664525
Li       1.42571908       4.30720613       0.17593453      -0.00106732       0.00198625       0.02025294
Li       1.42029487       4.40124854       5.98585419       0.00049368       0.01407731      -0.01772792
Li       3.59171441       2.92222288       4.47788023      -0.00070979       0.02286693      -0.00186341
Li       3.59153465       6.05419283       4.47118249       0.00036916       0.02449675      -0.00060567
Li       1.42283199       1.25682747       2.95698384      -0.00021279       0.01799272       0.02192725
Ga       3.58779322       2.83398196       7.36938371       0.00158473      -0.02177342       0.02451526
Ga       3.59499368       5.97020290       1.57938314      -0.00111223      -0.01984087      -0.02861934
Sn       3.59027686       5.79663605       7.42168802       0.00054600      -0.03368508      -0.01298245
Sn       1.42232034       4.50661315       3.03759043       0.00158074       0.01267448      -0.01835604
Sn       3.59342074       2.66502535       1.52881148      -0.00092713      -0.03334211       0.00741260
Sn       1.42075137       1.37612124       5.90753279      -0.00105242       0.01432387       0.02269204
12
Lattice="4.623647353293079 -0.0005689654835675473 -0.0002992336141798089 -2.3092661524878384 4.005332745907132 0.0017364420283662427 -0.00495369198983466 -0.0024687479635827378 11.350734340061084" Properties=species:S:1:pos:R:3:forces:R:3 structure_index=7 total_energy=-32.876014709472656 stress="-0.027732033282518387 0.0004796729190275073 1.840615368564613e-05 0.00047967577120289207 -0.027760248631238937 -0.0004898650804534554 1.8718508727033623e-05 -0.0004899977939203382 0.0016628464218229055" pbc="T T T"
Li       4.08672364       0.44732300       6.97094592      -0.00168587       0.00161441      -0.02545676
Li      -0.53460446       3.11773099       6.14581143       0.00101379      -0.00059342       0.04991224
Li       4.08640676       0.44671927       9.75432116       0.00048324      -0.00039122      -0.04888910
Li      -0.53537136       3.11723811       8.93996623      -0.00145943       0.00194779       0.01718732
Li       4.09536587       0.44589083       1.19054807      -0.00087433       0.00029043      -0.01352253
Li      -0.52616064       3.11456589       3.07553464      -0.00088396       0.00136108       0.02094659
Li       1.77683633       1.78085383      10.81743490       0.00019929      -0.00001306       0.00227784
Li       1.78577450       1.77970457       2.19626782      -0.00174118       0.00075883       0.01829045
Ga      -0.52792768       3.11774730       0.37250699       0.00025462      -0.00056949       0.00306093
Ga       1.77937455       1.78088935       5.13936132       0.00142001       0.00056098      -0.01673300
Sn       4.09358281       0.44497898       4.05379056      -0.00120766      -0.00054929      -0.01748998
Sn       1.77440875       1.78358848       7.96367341       0.00448151      -0.00441703       0.01041598
7
Lattice="4.172943995797831 0.00602631318972915 -0.004385098438489052 -2.0946720992344128 4.951605614154453 -0.5559197056529829 0.014446987264090248 0.09729380582901526 6.866026209180155" Properties=species:S:1:pos:R:3:forces:R:3 structure_index=8 total_energy=-21.86691665649414 stress="-0.04196351394057274 0.007211835589259863 0.0028296003583818674 0.0072117699310183525 -0.0479733906686306 0.009383775293827057 0.002829458564519882 0.009383691474795341 0.03186710923910141" pbc="T T T"
Li       1.23197792       1.69973955       5.63626556      -0.00062898      -0.04138629      -0.01877605
Li       3.30707042       0.95670319       0.71650365       0.00014771       0.04054766       0.02032152
Ga      -0.85751271       3.85018210       6.33467680       0.00011657      -0.00120687       0.00115311
Ga       1.21625076       3.08325692       1.26339433       0.00274579       0.00892605      -0.02157733
Ga       1.22713628       4.52056272       4.53740790      -0.00251635      -0.00536769       0.01931213
Sn       1.22582935       0.22748692       2.73691222      -0.00036695       0.00802862       0.00703802
Sn      -0.86061121       2.42152350       3.62276905       0.00050221      -0.00954149      -0.00747137
9
Lattice="4.6392818983887665 0.003117268617379038 1.4715968573790328 2.2208301065790366 5.122408893261857 1.0297676001838119 0.10758201190676674 -0.1659465586412914 7.695730540242543" Properties=species:S:1:pos:R:3:forces:R:3 structure_index=9 total_energy=-28.011310577392578 stress="0.004040712025016546 -0.004898914135992527 -0.0014245386701077223 -0.00489889457821846 0.03429696336388588 0.01576291024684906 -0.0014246265636757016 0.015762783586978912 0.008362902328372002" pbc="T T T"
Li       4.90698510       3.67000206       5.70088565      -0.00000588      -0.01479046      -0.00049077
Li       3.48384477       0.33766497       2.15691637      -0.00011968       0.01444031       0.00112513
Ga       0.48313175       0.38125667       3.55434008       0.00481160       0.00947647      -0.01256727
Ga       4.24913003       1.92078527       7.77781009       0.00037475       0.00042929      -0.00130071
Ga       3.26830055       3.62208272       2.83210088      -0.00465210      -0.00822761       0.01263843
Ga       2.00778215       3.96741920       6.78975909       0.00199043       0.03744474      -0.00761003
Ga       1.85241392      -0.12880387       7.29282647      -0.00208458      -0.03743054       0.00738145
Sn       1.18977889       2.34873672       1.33979335       0.00052452      -0.00244607      -0.00351069
Sn       2.56194347       1.65639154       5.04596481      -0.00083906       0.00110384       0.00433451
8
Lattice="4.629744617874052 0.00525700784987802 -0.00014903994451438674 -2.3187170468905025 4.007691888822991 -0.0002225265206115193 0.00020682707475077483 0.0007169163024009083 8.631213407266891" Properties=species:S:1:pos:R:3:forces:R:3 structure_index=10 total_energy=-23.51798439025879 stress="0.01823057048022747 -0.0027871071361005306 5.064180732006207e-05 -0.002787388162687421 0.01286036241799593 6.972891424084082e-05 5.0549162551760674e-05 6.984343781368807e-05 0.027217146009206772" pbc="T T T"
Li      -1.60565125       3.34040698       3.12362143      -0.00092821       0.00082952       0.00095303
Li       3.02565153       0.67310487       1.84863845      -0.00055016       0.00030199       0.04799165
Li       3.02337873       0.67575860       7.43686931       0.00071342      -0.00078495       0.00603689
Li      -1.60827491       3.34294297       6.16319694       0.00031658      -0.00049872       0.05101526
Ga       3.02496573       0.67341974       4.53356533      -0.00109519       0.00085180      -0.02774961
Ga      -1.60780669       3.34232510       0.21796014       0.00097253      -0.00107289      -0.02822844
Sn       0.70892271       2.00767375       0.97756563      -0.00060458       0.00067724      -0.02354040
Sn       0.70819088       2.00812385       5.29567870       0.00117559      -0.00030398      -0.02647841
15
Lattice="5.242338980452663 0.10159019831929166 -0.14099762087027107 -0.7704956300680693 5.503120469612943 -0.595480872386215 0.016327401188285497 -0.09766738392343362 10.055548218432616" Properties=species:S:1:pos:R:3:forces:R:3 structure_index=11 total_energy=-44.91938400268555 stress="0.008170546032488346 0.008657676167786121 -0.004595472477376461 0.008657703176140785 0.017018327489495277 -0.003999344538897276 -0.0045955427922308445 -0.00399951683357358 -0.005777398589998484" pbc="T T T"
Li       3.31484168       3.82018062       7.63546691       0.00646000      -0.04323615      -0.00813245
Li       3.17467563       3.13020830       2.69040272       0.00582043      -0.01594792       0.00022181
Li       3.07267847       0.42944046       1.13195774      -0.00826234       0.00328883       0.01113690
Li       0.07006408       0.56583506       6.73425702      -0.01100776      -0.01409264       0.01185538
Ga       0.16546194       0.51500004       9.55363119      -0.03437445       0.00369429       0.00229842
Ga       4.52931099       3.86180455       0.13225302       0.01369729       0.02335083       0.00735094
Ga       4.66349162       3.28000464       5.17852978      -0.00782713      -0.00033407       0.01078911
Ga       1.98811288       3.00915509       0.13577599      -0.01498964       0.00728332      -0.00476546
Ga       0.69710006       3.60921114       7.77533371      -0.01169139      -0.00028495       0.00433558
Ga       0.49584920       1.61184314       1.99629164      -0.00598387      -0.01433809      -0.01983249
Ga       2.15785209       4.64259195       5.23921552       0.02066482       0.00705840      -0.01206080
Ga       1.90295520       1.83904550       5.17491671       0.01920029       0.00661955       0.02371087
Ga       4.20234553       0.81124964       3.96082749       0.00764830       0.01632892      -0.00685453
Sn       0.56191627       4.55961122       2.82021376      -0.00527057       0.00881961       0.00324438
Sn       2.69221915       0.94442048       8.17692619       0.02591602       0.01179004      -0.02329766
4
Lattice="4.207276462181526 0.0004164094660005442 1.249448298668314e-05 -0.0010161370387503147 4.2066782163325795 -0.0022306310910792664 -2.5129472141739967e-06 0.0004968674819085884 4.260932317721724" Properties=species:S:1:pos:R:3:forces:R:3 structure_index=12 total_energy=-11.990537643432617 stress="-0.015260972082614899 -0.0007568596047349274 6.961576673347736e-06 -0.0007567692082375288 -0.0173531211912632 -0.0013031247071921825 6.972582923481241e-06 -0.0013031726703047752 0.10521826148033142" pbc="T T T"
Li       3.32475264       2.17949280       1.76441574       0.00011585       0.00017105      -0.00027343
Li       1.22178456       0.07589717       1.76550843      -0.00004466       0.00025264      -0.00023311
Ga       3.32524842       0.07618189       3.89591515       0.00016184       0.00063478      -0.00000044
Sn       1.22129386       2.18010630       3.89453067      -0.00023304      -0.00105848       0.00050698
14
Lattice="5.2126340163848885 0.006784863113812467 1.8440672934586853 1.7317024929075355 6.554237022591408 3.3298223911090847 -0.026582793539455706 -0.039830354571399954 8.30028767496813" Properties=species:S:1:pos:R:3:forces:R:3 structure_index=13 total_energy=-42.921958923339844 stress="-0.011881183832883835 0.0023448665160685778 0.002246218267828226 0.002344676060602069 -0.019403798505663872 -0.007588320877403021 0.0022462329361587763 -0.007588234730064869 -0.019485196098685265" pbc="T T T"
Li       1.03373216       0.73778739       7.56699986      -0.00858305       0.00624035       0.02284269
Li       3.70922070       2.40444527       8.28340282      -0.00750889       0.01188101       0.02126228
Ga       4.97360849       6.45883175       4.73669328       0.00212728       0.02634496      -0.00367453
Ga       4.15349984       1.83765102       3.02012932      -0.02487393      -0.01610356      -0.01460671
Ga       3.25198899       1.19896272       5.40733424       0.00144170       0.00009648      -0.00849891
Ga       1.57079892       3.31506635       6.04349493       0.00344589      -0.01599988      -0.01389643
Ga       5.92290085       3.55436555      10.30432493       0.01901910      -0.00635348      -0.04199599
Ga       5.78929769       6.08813319      10.65181127      -0.00276069      -0.02704922       0.00358339
Ga       1.88157925       5.85224095       5.13448775       0.00636296      -0.00696862      -0.01431697
Ga       3.70818900       5.33562937       8.25159054      -0.00273647       0.01700806       0.01152772
Ga       0.67421866       1.19334688       4.49443324       0.00575412       0.00487893      -0.01024114
Ga       1.49649443       1.81674712       2.07389701       0.02727244      -0.01275398       0.00759953
Sn       2.79776357       4.37583273      10.82340329      -0.00760925      -0.01590022       0.01320827
Sn       4.57589712       3.94572235       5.83175736      -0.01135122       0.03467920       0.02720679
12
Lattice="4.609703119871256 0.0007590382528066211 0.004186332603350735 -0.0015044339600910805 7.482292045887768 0.05936039872081389 -0.0036452658056453538 0.02038643267584083 7.958650225326999" Properties=species:S:1:pos:R:3:forces:R:3 structure_index=14 total_energy=-39.20012283325195 stress="0.009901167824864388 0.00021316419588401914 -0.00010033362195827067 0.00021321725216694176 0.012219826690852642 -0.000966970925219357 -0.00010032513091573492 -0.0009669655119068921 0.013778645545244217" pbc="T T T"
Li       4.35485364       1.56174946       1.93951309      -0.00055887       0.02291716      -0.00920638
Li       4.34989646       5.54278580       1.76501554       0.00014785       0.01165860       0.01218912
Li       2.04684559       1.29991250       5.66021822      -0.00036067       0.01584083      -0.02977950
Li       2.04414163       5.15342192       5.64427749       0.00034620       0.03876544       0.01217401
Ga       4.35018002       6.46691500       4.39534775      -0.00000663       0.02610013       0.01164382
Ga       2.04610235       6.50961580       0.44759992       0.00047857      -0.00732098      -0.01431454
Ga       2.04777363       2.70705792       3.15476010       0.00063223      -0.01212871      -0.01778769
Sn       4.35138963       3.67106532       4.29664652      -0.00048750      -0.02263181       0.01145625
Sn       2.04725320       3.72744076       0.60592686      -0.00019103      -0.01613536      -0.02142174
Sn       4.34961947       2.73029905       7.06125032       0.00071758       0.00547606       0.02538401
Sn       2.04615055       7.36631578       3.10432890      -0.00012084      -0.02175518      -0.00876259
Sn       4.34862037       7.27160718       7.04771562      -0.00059690      -0.04078621       0.02842522
12
Lattice="4.672292967861322 -0.0003546434939520898 5.706365713452132e-06 -0.0001658923709145308 5.947179944795656 0.043080870614188645 0.0006168456698958538 -0.01797622331922124 8.546807223718472" Properties=species:S:1:pos:R:3:forces:R:3 structure_index=15 total_energy=-36.971580505371094 stress="-0.015436273999512196 -0.00017303273489233106 0.00018275767797604203 -0.00017286467482335865 0.012704495340585709 -0.008670254610478878 0.00018268857093062252 -0.00867033563554287 0.023303063586354256" pbc="T T T"
Li       4.29984777       1.40553103       7.94737150      -0.00081531       0.00053459      -0.01309578
Li       1.96278115       4.46602166       3.41924885       0.00020052       0.00887566      -0.04387666
Ga       4.29944934       4.30117588       7.88948792       0.00008205       0.03357386       0.00825496
Ga       1.96174446       1.44492739       6.38857064       0.00202486       0.00050081       0.01579456
Ga       1.96365950       2.91242127       0.38318634      -0.00010753      -0.00621273       0.00652743
Ga       4.29897789       2.95185181       5.17142398      -0.00047065      -0.00623706       0.00138192
Ga       1.96265105       4.38788921       6.28250993       0.00066435      -0.00377986      -0.01986904
Ga       1.96328775       5.84350541       0.27025047      -0.00065997      -0.01953933       0.00875783
Ga       4.29909246       5.92019404       5.30467277      -0.00082555       0.00071856      -0.00270309
Ga       4.30064429       2.93019715       2.03407346      -0.00102666      -0.00262957       0.02016941
Sn       4.29903325       5.85653666       2.11844855       0.00045708       0.00528153       0.00643675
Sn       1.96343687       1.54917571       3.45801087       0.00047680      -0.01108648       0.01222172
10
Lattice="3.3986368484661735 -0.0010865435552509493 0.000313143439161182 0.0008699617571847674 3.398608553051258 -0.00022280139511545965 -0.0026970453758936967 0.0011390825400641462 17.046341722695214" Properties=species:S:1:pos:R:3:forces:R:3 structure_index=16 total_energy=-31.546878814697266 stress="0.021182604134082794 -0.0006377908866852522 -0.00033910368802025914 -0.0006378176040016115 0.021099967882037163 0.00012427284673321992 -0.00033915822859853506 0.00012428686022758484 0.01672160066664219" pbc="T T T"
Li       2.63224722       1.11656643      12.93170523       0.00042039       0.00002478       0.00012439
Li       2.63326438       1.11709427      16.50724671      -0.00095482      -0.00032192       0.00197289
Li       2.63513840       1.11615145       2.98188797      -0.00068218      -0.00013925      -0.04392042
Li       2.63315928       1.11558165       5.84255020       0.00076403       0.00055229       0.03440522
Li       2.63220865       1.11602454       9.34006501       0.00081254       0.00034603       0.01341154
Ga       0.93550690       2.81597616       4.41091494      -0.00033718      -0.00032012      -0.00283872
Sn       0.93385945       2.81644789      11.15682140      -0.00050767      -0.00030289      -0.02081452
Sn       0.93546884       2.81560563       1.26521586       0.00115932       0.00029527      -0.00390944
Sn       0.93374399       2.81642507      14.70629798       0.00009977       0.00025774       0.01089222
Sn       0.93465121       2.81605048       7.54568044      -0.00077422      -0.00039194       0.01067684
8
Lattice="5.567910901163507 -0.08336534744208475 -1.4506950346035052 -3.0676686770083674 4.561466929647528 -1.7042068194344735 0.11834457010309833 0.03937416373627684 5.888711308159184" Properties=species:S:1:pos:R:3:forces:R:3 structure_index=17 total_energy=-23.090579986572266 stress="0.015123487450182438 -0.008400318212807178 -0.010136518627405167 -0.008400309830904007 0.01910380832850933 -0.004989798180758953 -0.01013641431927681 -0.004989732522517443 -0.004500374663621187" pbc="T T T"
Li       0.54736352       4.32879904      -0.06275914      -0.00595588       0.02431315       0.00746579
Li       1.94825347       1.80611287       3.07914868       0.02742324      -0.01853635      -0.03431224
Li      -0.67075095       2.14344493       1.47529628      -0.01649057       0.00866069       0.01969801
Li      -2.39214305       4.08359751       2.98032473       0.01348282      -0.04117205      -0.01628792
Li      -2.45729612       4.06602855      -0.02217071      -0.00048682      -0.00004007       0.00297736
Ga       0.50144982       4.45957286       2.88664354      -0.02634437       0.02594306       0.01242823
Sn      -0.55666794       2.06222254       4.38942738       0.01900915       0.00512139       0.02197873
Sn       1.89514428       1.75261878       0.14915886      -0.01063756      -0.00428983      -0.01394797
14
Lattice="4.5301770494838545 -0.002616515757789305 -0.9071166257673696 0.0019038751956478254 4.663092407911235 -8.479376489884427e-05 -0.00970399246593219 0.0006276413953591752 11.711842430774304" Properties=species:S:1:pos:R:3:forces:R:3 structure_index=18 total_energy=-40.18982696533203 stress="-0.015829671174287796 -0.0008462740224786103 -0.002768232487142086 -0.0008462757687084377 -0.009924324229359627 0.0001575848291395232 -0.0027680459897965193 0.00015747564611956477 -0.02129637822508812" pbc="T T T"
Li       4.30148656       3.63819469       7.05501690      -0.00035957       0.00187401       0.01062537
Li       2.66247330       1.31030628      10.65919477       0.00171130      -0.00284423      -0.00366022
Li       2.03921851       1.30812735       7.52950730      -0.00205625       0.00144693       0.00641602
Li       3.97982149       1.30910176       5.46329347       0.00971644      -0.00178345       0.04303485
Li       2.35021288       3.64087155       9.09063568       0.00146987      -0.00014819       0.00731742
Li       1.06922899       3.64087717       2.70984082       0.00061198      -0.00051134      -0.00908389
Li       0.40166331       3.64078979      11.14010188      -0.00075762      -0.00003452      -0.01975802
Li       3.64239761       3.64043410       3.76921683       0.00013341      -0.00096617       0.01174112
Li       0.73090286       1.30765101       1.01177208      -0.00841271       0.00135599      -0.03598192