# Tetrahedron method
       -1.1608182659        0.0000000000
       -1.1255595014        0.0000000000
       -1.0903007368        0.0000000000
       -1.0550419722        0.0000000000
       -1.0197832076        0.0000000000
       -0.9845244430        0.0000000000
       -0.9492656784        0.0000000000
       -0.9140069138        0.0000000000
       -0.8787481492        0.0000000000
       -0.8434893847        0.0000000000
       -0.8082306201        0.0000000000
       -0.7729718555        0.0000000000
       -0.7377130909        0.0000000000
       -0.7024543263        0.0000000000
       -0.6671955617        0.0000000000
       -0.6319367971        0.0000000000
       -0.5966780325        0.0000000000
       -0.5614192680        0.6518304914
       -0.5261605034        5.3014154724
       -0.4909017388        6.4257184681
       -0.4556429742        5.0773343773
       -0.4203842096        5.6503803772
       -0.3851254450        7.0239904186
       -0.3498666804        6.8880551406
       -0.3146079159        5.9177553720
       -0.2793491513        7.8793205038
       -0.2440903867        7.0325340970
       -0.2088316221        6.9433311139
       -0.1735728575        3.6632515530
       -0.1383140929        2.1951634048
       -0.1030553283        1.8493347401
       -0.0677965637        1.4817829453
       -0.0325377992        1.3503227645
        0.0027209654        1.3930369249
        0.0379797300        1.4907234308
        0.0732384946        1.7491977351
        0.1084972592        2.7471535168
        0.1437560238        3.1238688891
        0.1790147884        3.6692412710
        0.2142735530        3.9224183495
        0.2495323175        3.2821846723
        0.2847910821        4.2870588078
        0.3200498467        6.6540813320
        0.3553086113       11.5141630174
        0.3905673759       19.3933428722
        0.4258261405       16.4847891110
        0.4610849051       13.9226378937
        0.4963436697        9.3957830043
        0.5316024342        9.7274346772
        0.5668611988       16.1101039500
        0.6021199634       13.4751166458
        0.6373787280       15.6041884995
        0.6726374926        6.6319261529
        0.7078962572        5.6126560156
        0.7431550218        6.1530014535
        0.7784137864        7.5999968637
        0.8136725509       10.9370053228
        0.8489313155       13.9930932529
        0.8841900801       18.2976266664
        0.9194488447        5.6843207305
        0.9547076093        4.2742010610
        0.9899663739        3.5668548144
        1.0252251385        3.3969088538
        1.0604839030        3.5346228777
        1.0957426676        5.8600505663
        1.1310014322        8.9467147851
        1.1662601968        9.3122678533
        1.2015189614        7.4643337263
        1.2367777260        5.6007232102
        1.2720364906        4.2293332454
        1.3072952552        6.1919070261
        1.3425540197        6.4296487011
        1.3778127843        7.7940610679
        1.4130715489       10.8416142094
        1.4483303135        6.3735876073
        1.4835890781       11.5834233878
        1.5188478427        5.8658222618
        1.5541066073        8.3332950218
        1.5893653719       12.1262036133
        1.6246241364       14.6553770815
        1.6598829010       16.7737204149
        1.6951416656        8.7455951309
        1.7304004302        8.1047994438
        1.7656591948        4.6269697132
        1.8009179594        1.2066000824
        1.8361767240        1.1984034721
        1.8714354886        1.4680156341
        1.9066942531        2.0560103229
        1.9419530177        4.2189461126
        1.9772117823       16.5516974975
        2.0124705469       26.6216633488
        2.0477293115        3.5407604274
        2.0829880761        7.5128031760
        2.1182468407        5.2703169500
        2.1535056053        1.5633663990
        2.1887643698        1.5847705452
        2.2240231344        1.7728257225
        2.2592818990        5.6604917034
        2.2945406636        3.8141273340
        2.3297994282        6.0771765660
        2.3650581928        5.3171549724
        2.4003169574        4.9628445982
        2.4355757219        5.4438502852
        2.4708344865       14.2168293548
        2.5060932511       49.5006039503
        2.5413520157       31.0759446582
        2.5766107803       24.7069526828
        2.6118695449        0.7889434869
        2.6471283095        0.9683035808
        2.6823870741        1.1981271699
        2.7176458386        1.4509778832
        2.7529046032        1.7625526385
        2.7881633678        2.1594161995
        2.8234221324        2.6494032531
        2.8586808970        3.2833141674
        2.8939396616        4.2324430687
        2.9291984262        5.8068474258
        2.9644571908       10.4525896284
        2.9997159553       15.3740562113
        3.0349747199        8.6763754043
        3.0702334845        0.0000000000
        3.1054922491        0.0000000000
        3.1407510137        0.0000000000
        3.1760097783        0.0000000000
        3.2112685429        0.0000000000
        3.2465273075        4.4651071583
        3.2817860720        3.3471797049
        3.3170448366        2.9680801857
        3.3523036012        2.9288408225
        3.3875623658       41.1188828545
        3.4228211304       35.6433953366
        3.4580798950        2.2783266920
        3.4933386596        1.8597029275
        3.5285974242        1.6435225411
        3.5638561887        1.5358611697
        3.5991149533        1.4910784394
        3.6343737179        1.4846185533
        3.6696324825       11.3441365030
        3.7048912471        4.0527090396
        3.7401500117        5.1104262010
        3.7754087763        2.1893390494
        3.8106675408        2.5962508937
        3.8459263054        4.4013384122
        3.8811850700        3.1612568532
        3.9164438346        2.7955867341
        3.9517025992        2.6030197259
        3.9869613638        2.5018206166
        4.0222201284        2.4681349523
        4.0574788930        7.6992687714
        4.0927376575       19.4490805246
        4.1279964221       20.0279577565
        4.1632551867       13.2461866844
        4.1985139513       15.9306507030
        4.2337727159        0.0000000000
        4.2690314805        0.0000000000
        4.3042902451        0.0000000000
        4.3395490097        0.0000000000
        4.3748077742        0.0000000000
        4.4100665388        0.0000000000
        4.4453253034        0.0000000000
        4.4805840680        0.0000000000
        4.5158428326        0.0000000000
        4.5511015972        0.0000000000
        4.5863603618        0.0000000000
        4.6216191264        0.0000000000
        4.6568778909        0.0000000000
        4.6921366555        0.0000000000
        4.7273954201        0.0000000000
        4.7626541847        0.0000000000
        4.7979129493        7.9736179429
        4.8331717139        7.2284218086
        4.8684304785        2.0961311144
        4.9036892431        7.3704707783
        4.9389480076       35.7048702971
        4.9742067722        4.2702935115
        5.0094655368        4.1592936332
        5.0447243014        5.4469101998
        5.0799830660        5.6843506130
        5.1152418306        3.9472929236
        5.1505005952        3.2186179780
        5.1857593597        2.7697890188
        5.2210181243        2.4355828306
        5.2562768889        2.1903038627
        5.2915356535        2.0028134027
        5.3267944181        0.0000000000
        5.3620531827        0.0000000000
        5.3973119473        0.0000000000
        5.4325707119        0.0000000000
        5.4678294764        0.0000000000
        5.5030882410        0.0000000000
        5.5383470056        0.0000000000
        5.5736057702        0.0000000000
        5.6088645348        0.0000000000
        5.6441232994        0.0000000000
        5.6793820640        0.0000000000
        5.7146408286        0.0000000000
        5.7498995931        0.0000000000
        5.7851583577        0.0000000000
        5.8204171223        0.0000000000
        5.8556758869        0.0000000000
        5.8909346515        0.0000000000
