4
Lattice="3.9982024047769995 6.882792858243925e-05 -1.687880180840258 -0.7114985964634584 3.938557713025318 -1.6867701521246752 -0.038178768217287475 -0.05022457194754112 5.4914018778584515" Properties=species:S:1:pos:R:3:forces:R:3 structure_index=0 total_energy=-13.026959419250488 stress="0.03039482608437538 -0.004080649930983782 -0.0066975480876863 -0.004080646671354771 0.035091765224933624 -0.010997606441378593 -0.006697517354041338 -0.01099767442792654 0.017482230439782143" pbc="T T T"
Li       2.75737983       1.19210332      -0.63240668      -0.00111520      -0.00218342      -0.00251042
Li       1.55799182       2.14592870       2.10633938       0.00108253       0.00231999       0.00242087
Sn       0.39912218       3.15773094      -0.63781716       0.00317224       0.00102041       0.00312598
Sn       3.91620429       0.18044627       2.11162825      -0.00313957      -0.00115698      -0.00303642
15
Lattice="5.436065045243846 -0.0032546866555880133 0.7476132228958455 0.6180561121550593 6.751975796691865 2.8879958627435323 0.006014626691555091 -0.013051900260546631 7.397925156753316" Properties=species:S:1:pos:R:3:forces:R:3 structure_index=1 total_energy=-36.21043014526367 stress="-0.019029740244150162 0.004065126180648804 -0.006095033138990402 0.004065094515681267 0.011385904625058174 -0.01307078916579485 -0.00609504384920001 -0.013070986606180668 -0.004476693458855152" pbc="T T T"
Li       4.45448683       6.50006466       3.97370238       0.01114771       0.00412343       0.00234543
Li       1.67066650       1.24616181       8.05409379      -0.01298334      -0.00042023      -0.01451530
Li       2.85625604       2.54003403       2.73200500      -0.00941256      -0.00439272       0.00004179
Li       1.69818523       5.18966737       4.05868581      -0.01231336       0.00112204       0.00125818
Li       0.85737243       2.32304484       4.67162418       0.00287850       0.00190456       0.01573626
Li       1.02729471       6.70485819       8.68840817      -0.00480002      -0.00055281      -0.01560905
Li       1.97660392       3.71706655       6.96873575      -0.00069670       0.00281786       0.00739105
Li       3.31955934       5.04680853       8.88838346      -0.00029630       0.01089048       0.01028255
Li       5.03003505       1.02829335       3.16088437       0.01259378       0.00140021       0.01495729
Li       4.00060078       3.98168956       5.22153465      -0.00044920      -0.01082725      -0.01255463
Li       3.35202045       1.13917131       5.60752366      -0.00067042      -0.00122766       0.00076720
Li       5.61286210       3.84831852       2.65229785       0.01315717       0.00001979      -0.00256269
Li       5.34233150       5.31346593       7.14164794      -0.00003947      -0.00532384      -0.01010158
Sn       4.58482273       2.47577184       7.80082647       0.00335619      -0.00079649      -0.01081490
Sn       2.73346711       6.55188107       6.30464972      -0.00147199       0.00126259       0.01337840
9
Lattice="4.437505738007374 0.0004780862376011335 -1.5521725467847094 -0.6059498445871564 7.322445805573133 -1.7312080433411496 -0.5810101678128954 0.0326253114276471 5.458558081587659" Properties=species:S:1:pos:R:3:forces:R:3 structure_index=2 total_energy=-26.76959228515625 stress="-0.009106564335525036 -0.00030277014593593776 0.018962902948260307 -0.00030289182905107737 -0.022949326783418655 -0.0012269794242456555 0.0189629178494215 -0.0012271093437448144 0.03969768434762955" pbc="T T T"
Li      -0.01981803       5.22933095       3.48264858      -0.00971725       0.00373144      -0.02778079
Li       0.02822685       0.46425975       3.61952418      -0.01181288       0.02342723      -0.03432734
Li       1.14384487       2.79930465      -0.30994663       0.00954036      -0.00358721       0.02748503
Li       1.70175513       0.24224525       1.28399404       0.01181453      -0.02333905       0.03445549
Li       1.67556612       5.25980573       1.20984025       0.01048412      -0.00136467       0.03106378
Li       3.88582734       2.76978829       0.41030064      -0.01046596       0.00129572      -0.03077941
Sn       3.37015915       5.22362366      -1.06433232      -0.00297221       0.01652855      -0.00942456
Sn       2.19121953       2.80599184       2.68460715       0.00314895      -0.01661802       0.00937632
Sn       3.37425528       0.33728280      -1.05357240      -0.00001968      -0.00007396      -0.00006852
8
Lattice="4.749014036240677 0.00017396016658222023 -0.001076956380027984 -0.0010921754543371971 5.565687881908182 -1.8143794894341423 0.0010664727726781037 -0.1125621772252272 5.854867095556167" Properties=species:S:1:pos:R:3:forces:R:3 structure_index=3 total_energy=-24.268518447875977 stress="0.037781745195388794 -0.001545239007100463 -0.0010865068761631846 -0.0015451263170689344 0.016150157898664474 -0.0026866947300732136 -0.0010864996584132314 -0.002686647931113839 0.025182360783219337" pbc="T T T"
Li       0.14308226       2.14934919       2.91765723      -0.00067049       0.00157105      -0.00104309
Li       0.14193919       4.99114352      -0.92076253      -0.00060762      -0.00018943       0.00296607
Li       2.51641136       3.61040919       1.03086931      -0.00044265       0.03776897       0.02449096
Li       0.14127790       2.20934416      -0.00990491       0.00025467      -0.00116852      -0.00056332
Li       2.51662778       0.69216137       4.80066429       0.00045070      -0.03748638      -0.02527108
Sn       2.51723495       3.45930034       4.00205289       0.00024976      -0.02632054       0.03717994
Sn       2.51697799       0.84296661       1.82850629       0.00062370       0.02645969      -0.03533175
Sn       0.14144096       4.93334760       2.00919307       0.00014193      -0.00063487      -0.00242774
8
Lattice="5.837765836701481 0.0006773773520726122 3.37077384862931 1.9451507361546283 5.505259313618567 3.368627137560627 -0.0005039667046604766 0.0008797178429528858 6.739753315975107" Properties=species:S:1:pos:R:3:forces:R:3 structure_index=4 total_energy=-30.095684051513672 stress="-0.03013346530497074 -0.00026776042068377137 0.0004443535581231117 -0.0002677745360415429 -0.029138322919607162 -0.0007817709702067077 0.0004443549260031432 -0.000781792332418263 -0.03212761878967285" pbc="T T T"
Li       4.95170115       4.81160020       6.76153562       0.00142172       0.00105342       0.00409172
Sn       4.95428655       4.81529410      10.13701664      -0.00055105      -0.00172452      -0.00261486
Sn       1.06312554       2.06161586       6.76783804      -0.00014692       0.00059092      -0.00062828
Sn       2.03450995       4.81701829       8.45034535       0.00159032      -0.00343489       0.00017969
Sn       3.98340180       2.05823951       8.45145515      -0.00184511       0.00367137       0.00079739
Sn       1.06246751       2.06069200       3.39777792       0.00107100       0.00061051      -0.00120932
Sn       2.03551043       4.81347491       5.07944955      -0.00108876      -0.00050481       0.00037084
Sn       3.98173476       2.06030930       5.08215494      -0.00045119      -0.00026201      -0.00098716
4
Lattice="4.207385063171387 0.0 0.000571593758650143 0.0004864796955052277 4.21276280455285 -0.00023270295059729564 0.0 0.0 4.209007263183594" Properties=species:S:1:pos:R:3:forces:R:3 structure_index=5 total_energy=-11.042601585388184 stress="-0.0823865458369255 0.0015371794579550624 0.0018043407471850514 0.00153724302072078 -0.07818382978439331 -0.0007329543586820364 0.0018042302690446377 -0.0007330204825848341 -0.08117177337408066" pbc="T T T"
Li       2.99083154       3.00192234       0.66939575      -0.00042596      -0.00006035      -0.00094203
Li       0.88714698       0.89553340       0.66699737      -0.00025289       0.00017512       0.00220223
Li       0.88578159       3.00236754       2.77278749       0.00200898      -0.00068263      -0.00012622
Sn       2.99083656       0.89542499       2.77353961      -0.00133012       0.00056786      -0.00113397
6
Lattice="4.811472240352929 -0.0051848992188196176 0.00014040598938809128 0.0024229941123640867 4.459495381269503 -2.5617011001930434 -0.0025749662982174925 -0.020887060469663835 5.143190398408971" Properties=species:S:1:pos:R:3:forces:R:3 structure_index=6 total_energy=-15.199910163879395 stress="-0.0037139866035431623 -0.006025813054293394 -0.0030335774645209312 -0.00602582935243845 -0.027675192803144455 -0.04081399738788605 -0.003033677814528346 -0.040813837200403214 -0.002824898576363921" pbc="T T T"
Li       0.59157787       2.62071653       2.44971327       0.00086131       0.00427130       0.04173710
Li       2.99954892       4.11244267       1.47763291      -0.00082660      -0.00220692      -0.00041230
Li       2.99858831       1.14606209       1.47251596      -0.00056698      -0.00171136      -0.00127323
Li       0.59498335       4.01635573      -0.29567868      -0.00042792      -0.03521640      -0.01920560
Li       0.59314310       1.25090048      -0.30188753       0.00022626       0.04032055      -0.01961734
Sn       2.99960772       2.64004154      -1.09668274       0.00073391      -0.00545715      -0.00122864
20
Lattice="4.479945573284646 -0.0007362972050019613 1.019358137448029e-05 0.002738523878245018 10.120786078612134 -0.09318413545064747 0.00045712926680243347 0.03950149523790607 10.482017359607903" Properties=species:S:1:pos:R:3:forces:R:3 structure_index=7 total_energy=-69.36227416992188 stress="-0.003343758871778846 2.0762920030392706e-05 1.4572598956874572e-05 2.0735136786242947e-05 -0.011698184534907341 -0.007125571835786104 1.4529712643707171e-05 -0.007125556468963623 0.01054789312183857" pbc="T T T"
Li       3.67059752       7.17987511       4.32663760      -0.00011620       0.02088839       0.03951127
Li       1.42923877       2.13696564       4.20961783      -0.00017823      -0.00636049       0.01510932
Li       1.42932710       1.04458130       7.52312739      -0.00079990       0.00162492      -0.00172844
Li       1.42907291       6.09702663       2.23553871       0.00051365      -0.00092391       0.00037501
Li       1.43014914      10.04131116       0.26099823       0.00027724       0.00463035      -0.01418545
Li       3.66916646       6.10426921       7.47838645       0.00056549       0.00049405      -0.00181723
Li       3.66881836       4.99453794       0.14781438       0.00001843      -0.02015576      -0.03966209
Sn       3.66996416       7.96437028       1.26759911      -0.00026473       0.01252622      -0.01149070
Sn       1.42968613       5.18189398       5.27563707       0.00059727       0.01560899       0.01361678
Sn       3.66898158       1.02947091       2.27916522      -0.00099198      -0.00053785      -0.00033683
Sn       3.66980395       4.21672076       3.20331168      -0.00097136      -0.00890294       0.01097840
Sn       1.42991668       7.02571997       9.67411358      -0.00015368      -0.00339077      -0.00463474
Sn       1.42831037       3.13406149       1.19760125       0.00101260      -0.04216834       0.01079461
Sn       1.43158269       8.11861530       6.44042784      -0.00227405      -0.03074541       0.02076238
Sn       1.42892180       4.09182349       8.51421010       0.00082447       0.02948053      -0.01659156
Sn       3.66597913       0.09604718       5.44969538       0.00284600      -0.01062943      -0.00114761
Sn       1.43051179       9.05314851       3.29360969      -0.00028652       0.02900793      -0.03821760
Sn       3.66906307       1.99608167       9.58565234      -0.00032651       0.01799244       0.01700315
Sn       3.66971683       9.11198263       8.59525240       0.00125722       0.00452659       0.00799188
Sn       3.67065346       3.10527971       6.35625248      -0.00154921      -0.01296550      -0.00633053
5
Lattice="4.064137370278445 0.01948304026160812 1.8335455342678673 1.8803478508930072 4.854085147007745 1.1910276638782304 0.1009627600498698 -0.008669700785822899 5.191901984833904" Properties=species:S:1:pos:R:3:forces:R:3 structure_index=8 total_energy=-15.419113159179688 stress="0.046029288321733475 -0.0005146353505551815 -0.0032498089130967855 -0.0005146235344000161 0.04151473566889763 -0.017134083434939384 -0.0032498855143785477 -0.017134079709649086 0.04535115882754326" pbc="T T T"
Li       1.44583161       2.42187991       1.29911657      -0.01587731      -0.01307925       0.04000414
Li       3.14006150       0.59429260       2.99136764       0.00012465      -0.00038542      -0.00010696
Li       2.65042859       3.60024807       4.04152366       0.01624188       0.01368835      -0.04068841
Sn       4.38642475       1.61927302       5.63853026      -0.01399988       0.04119267       0.02443966
Sn       3.87532084       4.41414417       6.72694168       0.01351066      -0.04141635      -0.02364842
10
Lattice="4.369416688831606 0.002163867840307789 -1.2808449170981593 -0.41238696723821927 6.324400582332818 -1.3888302932578076 0.05992664946446147 0.2003995352392749 8.296352455892597" Properties=species:S:1:pos:R:3:forces:R:3 structure_index=9 total_energy=-33.48773956298828 stress="-0.02585521526634693 0.0019193511689081788 -0.0024363796692341566 0.0019193370826542377 -0.007754788734018803 0.00823820848017931 -0.0024363654665648937 0.008238211274147034 -0.03041452169418335" pbc="T T T"
Li       0.97274006       5.57082590       1.49046313      -0.00018822      -0.00022215      -0.00060519
Li       3.72343704       4.38462270       2.77941848       0.00192666       0.00272843       0.00592779
Li       3.00365377       0.43396429       0.30688234      -0.00163091      -0.00233343      -0.00485356
Li       1.17976500       2.40760501       2.18374926      -0.00009617       0.00013603       0.00097972
Sn       2.89458744       3.67271374      -0.05030334       0.00259393       0.00659866       0.00604249
Sn       1.99829637       3.08516207       4.98133893      -0.00854529      -0.03155985      -0.02897899
Sn       3.83238516       1.14655268       3.13728055      -0.00193276      -0.00637166      -0.00541030
Sn       1.79241487       6.23227920       4.28895062       0.00078087       0.02081884       0.00184715
Sn       0.21117505       5.11212291       6.98627990       0.00003889      -0.02129132      -0.00208688
Sn       0.42190033       1.93437955       7.68443312       0.00705299       0.03149648       0.02713778
4
Lattice="3.998712840052205 0.00031702971570144237 -1.6931938106182798 -0.7160932743612092 3.9323290726900506 -1.6908607257240058 -0.03200736759291771 -0.039956280353684585 5.493263407582455" Properties=species:S:1:pos:R:3:forces:R:3 structure_index=10 total_energy=-13.026973724365234 stress="0.04101767763495445 -0.002586508635431528 -0.006280238274484873 -0.002586526330560446 0.035952214151620865 -0.006672350689768791 -0.006280226167291403 -0.006672306917607784 0.0284578800201416" pbc="T T T"
Li       2.20652947       2.25725462       1.61416220      -0.00042625       0.00068106       0.00010678
Li       3.39949613       1.29583353      -1.13323263       0.00088519      -0.00118447      -0.00053514
Sn       0.56410363       0.28947947       3.30357073       0.00052845       0.00344715       0.00382012
Sn       1.04361356       3.26257978      -1.13021387      -0.00098740      -0.00294374      -0.00339177
20
Lattice="7.558824776544714 -0.03911052275880475 -1.917183664641272 -3.816319414177225 5.882680712028934 -4.897688181013384 -0.042816158224824694 0.007695160918876126 10.78133104279231" Properties=species:S:1:pos:R:3:forces:R:3 structure_index=11 total_energy=-68.98509216308594 stress="0.0026047031860798597 0.001606589532457292 -0.00359046901576221 0.0016065237578004599 -0.0070463018491864204 -0.0028184535913169384 -0.003590461565181613 -0.0028184542898088694 -0.010323643684387207" pbc="T T T"
Li       0.37993947       3.21697476       2.04033846      -0.02632814       0.02389250       0.01060636
Li       1.69713460       2.15472222       7.29268713       0.00518087      -0.00894465      -0.00177315
Li       1.84854870       5.56623880      -2.87288715      -0.00642816      -0.00527535       0.01075647
Li       3.18277909       4.55232849       2.35169657       0.01351328      -0.00224207      -0.02343607
Li       3.85434889       2.35882004       4.85987824       0.00615186      -0.01544269      -0.00343355
Li      -3.40590460       5.75123084      -3.41784986       0.02483640      -0.01224324       0.00789301
Li      -0.48459890       2.09340279      -1.06234763      -0.00969172       0.01921329       0.00387625
Sn       4.43362993       3.67056955      -3.06608719       0.00232712      -0.01074528       0.01343375
Sn       2.10557169       0.26978124       9.79661518       0.00959542       0.00216499       0.00347086
Sn       3.02952474       1.41663445       1.92087129      -0.00910986       0.00850837       0.00300934
Sn       4.38724126       0.45708261       7.40479952       0.00266586      -0.00781276      -0.01403018
Sn      -2.26594122       4.85258047       1.96163371      -0.00602813       0.00556818       0.00202462
Sn       2.40487551       3.39203720      -0.55567946      -0.00023239       0.00796810       0.00394886
Sn       5.31264287       1.53931988      -0.50447905       0.00239875      -0.00954818      -0.00358136
Sn       0.95375852       1.09510065       4.36124688      -0.00406810       0.00631008      -0.00146608
Sn      -0.18416926       5.16710780      -0.52358826      -0.00681336       0.00363436       0.00512092
Sn       1.33871527       4.26385870       4.93560795      -0.00323681      -0.00346220      -0.00639687
Sn       6.47165454       0.78442114       4.96956226       0.00952094       0.00419707      -0.00418246
Sn      -0.84910774       4.02601874      -3.46400067      -0.00207108      -0.00279031       0.00394210
Sn      -1.72879087       2.86142717       4.42634372      -0.00218274      -0.00295018      -0.00978279
11
Lattice="4.563358871545969 0.004683523981296314 -1.3886563793606839 -0.018371870984410545 5.468737527345512 -0.043029553768822684 -0.019348890175835364 0.01635429386883056 8.127410265697005" Properties=species:S:1:pos:R:3:forces:R:3 structure_index=12 total_energy=-31.229965209960938 stress="-0.027301501482725143 -0.003906590398401022 -0.0015052128583192825 -0.003906567580997944 -0.005760569591075182 -0.014059096574783325 -0.0015054630348458886 -0.014058793894946575 -0.03107745572924614" pbc="T T T"
Li       0.54541041       4.82096295       2.63406358      -0.00052341       0.00381552      -0.00158525
Li       1.78597785       1.43607920       6.69621668       0.00023699       0.01235933       0.00116144
Li       2.63429996       0.97323048       1.29634193       0.00034717      -0.00020826      -0.00061813
Li       1.38465206       4.45274133       5.38741566       0.00033421      -0.00371179       0.00153697
Li       0.16229127       2.36905279       1.36815338      -0.00024524      -0.01234996      -0.00103339
Li       3.87724291       2.83641086       5.37941145      -0.00020564       0.00045830       0.00058721
Li       3.05280098       3.27225582       2.67594378       0.00324759      -0.01387322       0.01011978
Li       3.45884094       0.53734803       3.99970409      -0.00319636       0.01394037      -0.00995483
Sn       2.24219355       3.82950864       0.01434273      -0.00719554      -0.01236485      -0.02425842
Sn       4.25111163       5.44910346       6.61845602       0.00710622       0.01197354       0.02401244
Sn       0.97413432       1.90253486       4.03219479       0.00009400      -0.00003893       0.00003214
6
Lattice="5.456762911615436 -0.08718400081114325 -1.2580955164548235 -3.1686481736997543 4.427476987418842 -1.2952816687076847 0.04799228706086802 0.048788902737491154 5.99526041700568" Properties=species:S:1:pos:R:3:forces:R:3 structure_index=13 total_energy=-20.889076232910156 stress="-0.004420754965394735 -0.03898344933986664 -0.019911693409085274 -0.03898342326283455 -0.006853815168142319 0.03812294453382492 -0.019911719486117363 0.03812297061085701 0.0220011118799448" pbc="T T T"
Li       0.67487663       3.66272105       3.77336962      -0.00535173       0.00072395      -0.00001153
Li       1.66788629       0.33523483       2.05429346       0.00497352      -0.00063583      -0.00126277
Sn       3.52471742       2.16644907       3.78425690      -0.03411627       0.01173051       0.00204214
Sn       0.97629155       0.73154081       5.04900956       0.00000939      -0.01089860       0.00255406
Sn      -1.18082320       1.83117152       2.04395771       0.03319489      -0.01115465       0.00080211
Sn       1.36243201       3.26342572       0.77448388       0.00129021       0.01023463      -0.00412402
16
Lattice="6.687662509728733 -0.05024189288595167 -0.02946467008342784 -0.026577497980981447 6.6881982054887565 -0.03139201189529096 -0.047819791335189016 -0.04544030388334181 6.68751607256667" Properties=species:S:1:pos:R:3:forces:R:3 structure_index=14 total_energy=-43.94776916503906 stress="-0.012509694322943687 0.00371266296133399 0.003879183903336525 0.003712503705173731 -0.012203183025121689 0.0038844679947942495 0.00387930148281157 0.003884570673108101 -0.011885248124599457" pbc="T T T"
Li       6.10492196       3.73294717       2.59355880       0.00440653       0.00351927       0.00049961
Li       1.03740358       2.14661279       4.23274341      -0.01975363       0.03057538      -0.01918412
Li       2.72039414       0.35699192       2.63225293      -0.01052202      -0.00827862       0.01438059
Li       1.04185018       5.39886799       0.98275088      -0.01970294      -0.01806739       0.02906512
Li       2.75973015       0.39925430       5.96847515       0.00596156       0.00658103       0.00516951
Li       6.12176468       0.31991370       5.88937595       0.01173103      -0.01404864      -0.01009372
Li       4.46923418       2.10242848       4.21723442       0.01042392       0.00901101      -0.00118911
Li       4.47739742       5.36115827       4.20098897       0.02891843      -0.01982702      -0.01756860
Li       4.48761317       5.37435806       0.95317751       0.00648025       0.00372665       0.00914029
Li       2.69329916       3.76486378       5.87892303      -0.01514221       0.00959413      -0.00617358
Li       1.06008307       5.42347846       4.25693589      -0.02225651      -0.02337494      -0.02088525
Li       1.05604239       2.16096634       0.98388865       0.00370080       0.00562726       0.00830882
Sn       6.13401852       3.76298983       5.88492649       0.00970217       0.00879416      -0.00077622
Sn       6.17498763       0.35292073       2.64981178       0.00560037       0.00275527       0.00480249
Sn       2.72576489       3.81526480       2.65215846      -0.00006480       0.00644334       0.00621530
Sn       4.37112550       2.00829250       0.84701686       0.00051710      -0.00303088      -0.00171116
8
Lattice="4.961289757988358 0.0019250273113808802 0.0007327179782680933 -0.0004415723585235061 5.610878021731034 -2.19817913547281 -0.002460134072615027 -0.11965894813013667 6.027404361154808" Properties=species:S:1:pos:R:3:forces:R:3 structure_index=15 total_energy=-26.08580780029297 stress="-0.041176844388246536 -0.00010439917241455987 -0.0002998654672410339 -0.00010436331649543718 -0.0030889357440173626 -0.015530932694673538 -0.00029983214335516095 -0.015530969016253948 0.015063431113958359" pbc="T T T"
Li       3.86832818       4.53907997      -1.63948682       0.00040232       0.02681715      -0.03607830
Li       3.86531648       1.67582624       2.47231950       0.00153861       0.02497415      -0.03572740
Li       1.38682794       3.39149151       0.01076372       0.00011222      -0.02716981       0.03813979
Li       1.38634801       0.52653609       4.12290784      -0.00034104      -0.02785712       0.03756624
Sn       1.38609794       3.31071401       3.05282669      -0.00101033       0.00358247      -0.00552785
Sn       1.38764968       0.56536214       1.13611598      -0.00069602       0.00317435      -0.00308118
Sn       3.86616305       4.49961668       1.34876607       0.00073683      -0.00158094       0.00166533
Sn       3.86893741       1.75379302      -0.56723781      -0.00074258      -0.00194024       0.00304338
12
Lattice="5.528209333674876 -0.645691355866175 -0.5739351307766754 -3.3222698322347126 4.466389820542671 0.5735137440266427 -2.555437577966541 1.4711015832500447 13.123226374591047" Properties=species:S:1:pos:R:3:forces:R:3 structure_index=16 total_energy=-41.928558349609375 stress="-0.010351588949561119 0.012070753611624241 -0.002175880828872323 0.01207074522972107 0.007137863431125879 -0.0022888565436005592 -0.002175909699872136 -0.0022888442035764456 0.009777853265404701" pbc="T T T"
Li      -1.63989455       4.54928943      10.73889707      -0.00102086      -0.00018463      -0.00215452
Li       0.27273854       3.44431009       0.88442053       0.00066529       0.00022863       0.00358340
Li      -0.36628602       3.81318387       4.17818765      -0.00046746       0.00030203      -0.00403018
Li      -1.00383804       4.18180879       7.45921304       0.00040919      -0.00013486       0.00023315
Sn       0.18167936       0.94909283       2.83119280       0.02752512      -0.01564974       0.04990537
Sn      -1.09288256       1.68602165       9.40501011       0.02549335      -0.01534865       0.03552692
Sn       1.77275061       2.57874944       8.22206852      -0.02812367       0.01560226      -0.04697725
Sn       1.13315415       2.94517434      11.49561400      -0.02728235       0.01598187      -0.04048396
Sn      -1.73377860       2.05268135      12.67786622       0.02786075      -0.01581728       0.04509152
Sn       2.40714460       2.21128273       4.94230471      -0.02674724       0.01556482      -0.04865392
Sn       3.04713242       1.84186175       1.64916390      -0.02534376       0.01491336      -0.03361521
Sn      -0.45679243       1.31819100       6.12045101       0.02703165      -0.01545781       0.04157470
12
Lattice="4.383022167469265 0.0077824074524168105 -0.003063149699803225 -0.01573965741106126 6.426615272516058 -0.015339923186945013 0.004416146176066671 0.013482114995982269 9.216676916333691" Properties=species:S:1:pos:R:3:forces:R:3 structure_index=17 total_energy=-38.84746551513672 stress="0.010059691965579987 -0.0024443301372230053 -0.0004117598582524806 -0.0024443110451102257 0.014552852138876915 -0.0009977881563827395 -0.0004117520875297487 -0.0009978525340557098 0.011728441342711449" pbc="T T T"
Li       0.58007681       0.78615231       5.11357795      -0.00105694      -0.00968002      -0.01374298
Li       0.57262775       3.96202861       4.92586025      -0.00072083       0.01535461       0.01409693
Li       2.75634670       5.52324639       0.31207268      -0.00032721      -0.02187966       0.01485101
Li       2.75990970       5.55188715       3.44573026      -0.00226843       0.01750231      -0.02031001
Li       2.76569211       2.26806786       0.50868879      -0.00143472       0.00886950      -0.02575348
Li       0.57184596       3.92700522       8.05339391       0.00040671      -0.01426624      -0.01592646
Sn       2.76558898       2.38166711       3.48552891       0.00029690       0.00258722       0.02214854
Sn       0.58006396       0.67381937       8.10744506      -0.00009465       0.00774915       0.01138888
Sn       2.75878150       5.52122590       6.44291023       0.00120195      -0.00846091       0.04332858
Sn       2.76656078       2.41600210       6.63045049       0.00062490       0.03118060      -0.03928899
Sn       0.57409089       0.63284432       2.03387953       0.00529070      -0.02094933      -0.04085871
Sn       0.57167109       3.97056938       1.83428890      -0.00191838      -0.00800724       0.05006669
14
Lattice="5.224187925290184 0.0012148092905194339 -1.1765073845912701 -0.001880903832688023 5.014703869907506 -0.0006505738211434205 0.10284352247671363 0.0015272832935735413 11.024695912966562" Properties=species:S:1:pos:R:3:forces:R:3 structure_index=18 total_energy=-43.67060852050781 stress="0.009215252473950386 -0.00013705303717870265 -0.0004198822134640068 -0.00013708964979741722 0.01857895404100418 -3.229039066354744e-05 -0.0004199502582196146 -3.221138467779383e-05 0.011157941073179245" pbc="T T T"
Li       2.37492136       0.78669237       1.69282864      -0.02227174       0.00029492      -0.02921854
Li       1.12349800       3.29415195       0.35321197       0.00156146       0.00008238       0.02491624
Li       3.12559166       0.78822915       4.71824282       0.01123347      -0.00019394      -0.00802533
Li       3.23407364       3.29665321       9.33033030      -0.01741641      -0.00026798       0.02514698
Li       4.50695847       0.78930053      -0.36993940      -0.03601672      -0.00064186       0.00388603
Li       4.84325538       3.29681878       4.27352127       0.04676675      -0.00037308      -0.00557232
Li       0.38980830       3.29525437       8.44008640       0.01419710      -0.00008757       0.00341110
Li       0.93008238       0.78836843       6.80785642       0.00449327      -0.00011869      -0.01756949
Sn       4.09222027       3.29588704       1.16588896       0.00141615      -0.00011644      -0.00930391
Sn       1.92654986       3.29422873       3.36342931       0.00354519       0.00076674       0.00199295
Sn       2.65127958       3.29569207       6.34395583       0.00465441       0.00011194       0.00661874
Sn       3.92444726       0.78859467       7.72250755      -0.03614216       0.00047992      -0.01459327
Sn       0.08337053       0.78746814       3.77659420       0.02257436      -0.00030058      -0.00204780
Sn       1.55873247       0.78825058       9.83826853       0.00140486       0.00036423       0.02035861
10