phonopy:
  version: "2.37.1"
  frequency_unit_conversion_factor: 15.633302
  symmetry_tolerance: 1.00000e-05

space_group:
  type: "P1"
  number: 1
  Hall_symbol: "P 1"

primitive_matrix:
- [  1.000000000000000, -1.000000000000000, -0.000000000000000 ]
- [  0.000000000000000, -1.000000000000000, -0.000000000000000 ]
- [  0.000000000000000,  0.000000000000000, -1.000000000000000 ]

supercell_matrix:
- [   3,   0,   0 ]
- [   0,   3,   0 ]
- [   0,   0,   1 ]

primitive_cell:
  lattice:
  - [     4.486302922426643,     0.000000000000000,     0.000000000000000 ] # a
  - [    -2.240755267210483,    -3.916799363157681,     0.000000000000000 ] # b
  - [    -0.007636223191183,     2.532533005767460,   -11.687792312389149 ] # c
  points:
  - symbol: Sn # 1
    coordinates: [  0.569623120137515,  0.516315077529182,  0.297782723074214 ]
    mass: 118.710000
  - symbol: Sn # 2
    coordinates: [  0.426441755723258,  0.230656443089432,  0.869210934582361 ]
    mass: 118.710000
  - symbol: Sn # 3
    coordinates: [  0.855188492039789,  0.087743186090452,  0.154747609029122 ]
    mass: 118.710000
  - symbol: Sn # 4
    coordinates: [  0.998038001656629,  0.373575414061876,  0.584118219883764 ]
    mass: 118.710000
  - symbol: Sn # 5
    coordinates: [  0.712252546937003,  0.802202071057815,  0.726853064712402 ]
    mass: 118.710000
  - symbol: Sn # 6
    coordinates: [  0.283798961740460,  0.944928530813867,  0.440958825757708 ]
    mass: 118.710000
  - symbol: Sn # 7
    coordinates: [  0.140735983687448,  0.659178676652342,  0.011861675581078 ]
    mass: 118.710000
  reciprocal_lattice: # without 2pi
  - [     0.222900686220069,    -0.127518884783975,    -0.027776666053468 ] # a*
  - [     0.000000000000000,    -0.255310499027913,    -0.055321163161136 ] # b*
  - [     0.000000000000000,    -0.000000000000000,    -0.085559357428006 ] # c*

unit_cell:
  lattice:
  - [     4.486302922426643,     0.000000000000000,     0.000000000000000 ] # a
  - [    -2.245547655216161,     3.916799363157681,     0.000000000000000 ] # b
  - [     0.007636223191183,    -2.532533005767460,    11.687792312389149 ] # c
  points:
  - symbol: Sn # 1
    coordinates: [  0.053308042608333,  0.483684922470818,  0.702217276925786 ]
    mass: 118.710000
    reduced_to: 1
  - symbol: Sn # 2
    coordinates: [  0.195785312633826,  0.769343556910568,  0.130789065417639 ]
    mass: 118.710000
    reduced_to: 2
  - symbol: Sn # 3
    coordinates: [  0.767445305949338,  0.912256813909549,  0.845252390970878 ]
    mass: 118.710000
    reduced_to: 3
  - symbol: Sn # 4
    coordinates: [  0.624462587594753,  0.626424585938124,  0.415881780116236 ]
    mass: 118.710000
    reduced_to: 4
  - symbol: Sn # 5
    coordinates: [  0.910050475879188,  0.197797928942185,  0.273146935287598 ]
    mass: 118.710000
    reduced_to: 5
  - symbol: Sn # 6
    coordinates: [  0.338870430926592,  0.055071469186133,  0.559041174242292 ]
    mass: 118.710000
    reduced_to: 6
  - symbol: Sn # 7
    coordinates: [  0.481557307035106,  0.340821323347658,  0.988138324418922 ]
    mass: 118.710000
    reduced_to: 7

supercell:
  lattice:
  - [    13.458908767279929,     0.000000000000000,     0.000000000000000 ] # a
  - [    -6.736642965648482,    11.750398089473043,     0.000000000000000 ] # b
  - [     0.007636223191183,    -2.532533005767460,    11.687792312389149 ] # c
  points:
  - symbol: Sn # 1
    coordinates: [  0.017769347536111,  0.161228307490273,  0.702217276925786 ]
    mass: 118.710000
    reduced_to: 1
  - symbol: Sn # 2
    coordinates: [  0.351102680869444,  0.161228307490273,  0.702217276925786 ]
    mass: 118.710000
    reduced_to: 1
  - symbol: Sn # 3
    coordinates: [  0.684436014202778,  0.161228307490273,  0.702217276925786 ]
    mass: 118.710000
    reduced_to: 1
  - symbol: Sn # 4
    coordinates: [  0.017769347536111,  0.494561640823606,  0.702217276925786 ]
    mass: 118.710000
    reduced_to: 1
  - symbol: Sn # 5
    coordinates: [  0.351102680869444,  0.494561640823606,  0.702217276925786 ]
    mass: 118.710000
    reduced_to: 1
  - symbol: Sn # 6
    coordinates: [  0.684436014202778,  0.494561640823606,  0.702217276925786 ]
    mass: 118.710000
    reduced_to: 1
  - symbol: Sn # 7
    coordinates: [  0.017769347536111,  0.827894974156939,  0.702217276925786 ]
    mass: 118.710000
    reduced_to: 1
  - symbol: Sn # 8
    coordinates: [  0.351102680869444,  0.827894974156939,  0.702217276925786 ]
    mass: 118.710000
    reduced_to: 1
  - symbol: Sn # 9
    coordinates: [  0.684436014202778,  0.827894974156939,  0.702217276925786 ]
    mass: 118.710000
    reduced_to: 1
  - symbol: Sn # 10
    coordinates: [  0.065261770877942,  0.256447852303523,  0.130789065417639 ]
    mass: 118.710000
    reduced_to: 10
  - symbol: Sn # 11
    coordinates: [  0.398595104211275,  0.256447852303523,  0.130789065417639 ]
    mass: 118.710000
    reduced_to: 10
  - symbol: Sn # 12
    coordinates: [  0.731928437544609,  0.256447852303523,  0.130789065417639 ]
    mass: 118.710000
    reduced_to: 10
  - symbol: Sn # 13
    coordinates: [  0.065261770877942,  0.589781185636856,  0.130789065417639 ]
    mass: 118.710000
    reduced_to: 10
  - symbol: Sn # 14
    coordinates: [  0.398595104211275,  0.589781185636856,  0.130789065417639 ]
    mass: 118.710000
    reduced_to: 10
  - symbol: Sn # 15
    coordinates: [  0.731928437544609,  0.589781185636856,  0.130789065417639 ]
    mass: 118.710000
    reduced_to: 10
  - symbol: Sn # 16
    coordinates: [  0.065261770877942,  0.923114518970189,  0.130789065417639 ]
    mass: 118.710000
    reduced_to: 10
  - symbol: Sn # 17
    coordinates: [  0.398595104211275,  0.923114518970189,  0.130789065417639 ]
    mass: 118.710000
    reduced_to: 10
  - symbol: Sn # 18
    coordinates: [  0.731928437544609,  0.923114518970189,  0.130789065417639 ]
    mass: 118.710000
    reduced_to: 10
  - symbol: Sn # 19
    coordinates: [  0.255815101983113,  0.304085604636516,  0.845252390970878 ]
    mass: 118.710000
    reduced_to: 19
  - symbol: Sn # 20
    coordinates: [  0.589148435316446,  0.304085604636516,  0.845252390970878 ]
    mass: 118.710000
    reduced_to: 19
  - symbol: Sn # 21
    coordinates: [  0.922481768649779,  0.304085604636516,  0.845252390970878 ]
    mass: 118.710000
    reduced_to: 19
  - symbol: Sn # 22
    coordinates: [  0.255815101983113,  0.637418937969849,  0.845252390970878 ]
    mass: 118.710000
    reduced_to: 19
  - symbol: Sn # 23
    coordinates: [  0.589148435316446,  0.637418937969849,  0.845252390970878 ]
    mass: 118.710000
    reduced_to: 19
  - symbol: Sn # 24
    coordinates: [  0.922481768649779,  0.637418937969849,  0.845252390970878 ]
    mass: 118.710000
    reduced_to: 19
  - symbol: Sn # 25
    coordinates: [  0.255815101983113,  0.970752271303183,  0.845252390970878 ]
    mass: 118.710000
    reduced_to: 19
  - symbol: Sn # 26
    coordinates: [  0.589148435316446,  0.970752271303183,  0.845252390970878 ]
    mass: 118.710000
    reduced_to: 19
  - symbol: Sn # 27
    coordinates: [  0.922481768649779,  0.970752271303183,  0.845252390970878 ]
    mass: 118.710000
    reduced_to: 19
  - symbol: Sn # 28
    coordinates: [  0.208154195864918,  0.208808195312708,  0.415881780116236 ]
    mass: 118.710000
    reduced_to: 28
  - symbol: Sn # 29
    coordinates: [  0.541487529198251,  0.208808195312708,  0.415881780116236 ]
    mass: 118.710000
    reduced_to: 28
  - symbol: Sn # 30
    coordinates: [  0.874820862531585,  0.208808195312708,  0.415881780116236 ]
    mass: 118.710000
    reduced_to: 28
  - symbol: Sn # 31
    coordinates: [  0.208154195864918,  0.542141528646041,  0.415881780116236 ]
    mass: 118.710000
    reduced_to: 28
  - symbol: Sn # 32
    coordinates: [  0.541487529198251,  0.542141528646041,  0.415881780116236 ]
    mass: 118.710000
    reduced_to: 28
  - symbol: Sn # 33
    coordinates: [  0.874820862531585,  0.542141528646041,  0.415881780116236 ]
    mass: 118.710000
    reduced_to: 28
  - symbol: Sn # 34
    coordinates: [  0.208154195864918,  0.875474861979375,  0.415881780116236 ]
    mass: 118.710000
    reduced_to: 28
  - symbol: Sn # 35
    coordinates: [  0.541487529198251,  0.875474861979375,  0.415881780116236 ]
    mass: 118.710000
    reduced_to: 28
  - symbol: Sn # 36
    coordinates: [  0.874820862531585,  0.875474861979375,  0.415881780116236 ]
    mass: 118.710000
    reduced_to: 28
  - symbol: Sn # 37
    coordinates: [  0.303350158626396,  0.065932642980728,  0.273146935287598 ]
    mass: 118.710000
    reduced_to: 37
  - symbol: Sn # 38
    coordinates: [  0.636683491959729,  0.065932642980728,  0.273146935287598 ]
    mass: 118.710000
    reduced_to: 37
  - symbol: Sn # 39
    coordinates: [  0.970016825293063,  0.065932642980728,  0.273146935287598 ]
    mass: 118.710000
    reduced_to: 37
  - symbol: Sn # 40
    coordinates: [  0.303350158626396,  0.399265976314062,  0.273146935287598 ]
    mass: 118.710000
    reduced_to: 37
  - symbol: Sn # 41
    coordinates: [  0.636683491959729,  0.399265976314062,  0.273146935287598 ]
    mass: 118.710000
    reduced_to: 37
  - symbol: Sn # 42
    coordinates: [  0.970016825293063,  0.399265976314062,  0.273146935287598 ]
    mass: 118.710000
    reduced_to: 37
  - symbol: Sn # 43
    coordinates: [  0.303350158626396,  0.732599309647395,  0.273146935287598 ]
    mass: 118.710000
    reduced_to: 37
  - symbol: Sn # 44
    coordinates: [  0.636683491959729,  0.732599309647395,  0.273146935287598 ]
    mass: 118.710000
    reduced_to: 37
  - symbol: Sn # 45
    coordinates: [  0.970016825293063,  0.732599309647395,  0.273146935287598 ]
    mass: 118.710000
    reduced_to: 37
  - symbol: Sn # 46
    coordinates: [  0.112956810308864,  0.018357156395378,  0.559041174242292 ]
    mass: 118.710000
    reduced_to: 46
  - symbol: Sn # 47
    coordinates: [  0.446290143642197,  0.018357156395378,  0.559041174242292 ]
    mass: 118.710000
    reduced_to: 46
  - symbol: Sn # 48
    coordinates: [  0.779623476975531,  0.018357156395378,  0.559041174242292 ]
    mass: 118.710000
    reduced_to: 46
  - symbol: Sn # 49
    coordinates: [  0.112956810308864,  0.351690489728711,  0.559041174242292 ]
    mass: 118.710000
    reduced_to: 46
  - symbol: Sn # 50
    coordinates: [  0.446290143642197,  0.351690489728711,  0.559041174242292 ]
    mass: 118.710000
    reduced_to: 46
  - symbol: Sn # 51
    coordinates: [  0.779623476975531,  0.351690489728711,  0.559041174242292 ]
    mass: 118.710000
    reduced_to: 46
  - symbol: Sn # 52
    coordinates: [  0.112956810308864,  0.685023823062044,  0.559041174242292 ]
    mass: 118.710000
    reduced_to: 46
  - symbol: Sn # 53
    coordinates: [  0.446290143642197,  0.685023823062044,  0.559041174242292 ]
    mass: 118.710000
    reduced_to: 46
  - symbol: Sn # 54
    coordinates: [  0.779623476975531,  0.685023823062044,  0.559041174242292 ]
    mass: 118.710000
    reduced_to: 46
  - symbol: Sn # 55
    coordinates: [  0.160519102345035,  0.113607107782553,  0.988138324418922 ]
    mass: 118.710000
    reduced_to: 55
  - symbol: Sn # 56
    coordinates: [  0.493852435678369,  0.113607107782553,  0.988138324418922 ]
    mass: 118.710000
    reduced_to: 55
  - symbol: Sn # 57
    coordinates: [  0.827185769011702,  0.113607107782553,  0.988138324418922 ]
    mass: 118.710000
    reduced_to: 55
  - symbol: Sn # 58
    coordinates: [  0.160519102345035,  0.446940441115886,  0.988138324418922 ]
    mass: 118.710000
    reduced_to: 55
  - symbol: Sn # 59
    coordinates: [  0.493852435678369,  0.446940441115886,  0.988138324418922 ]
    mass: 118.710000
    reduced_to: 55
  - symbol: Sn # 60
    coordinates: [  0.827185769011702,  0.446940441115886,  0.988138324418922 ]
    mass: 118.710000
    reduced_to: 55
  - symbol: Sn # 61
    coordinates: [  0.160519102345035,  0.780273774449219,  0.988138324418922 ]
    mass: 118.710000
    reduced_to: 55
  - symbol: Sn # 62
    coordinates: [  0.493852435678369,  0.780273774449219,  0.988138324418922 ]
    mass: 118.710000
    reduced_to: 55
  - symbol: Sn # 63
    coordinates: [  0.827185769011702,  0.780273774449219,  0.988138324418922 ]
    mass: 118.710000
    reduced_to: 55

displacements:
- atom:    1
  displacement:
    [   0.0100000000000000,  0.0000000000000000,  0.0000000000000000 ]
  forces:
  - [  -0.0190716404467821,  0.0002910466864705, -0.0021301186643541 ]
  - [  -0.0005876491195522,  0.0002903067506850, -0.0021508000791073 ]
  - [  -0.0005402241949923,  0.0002898355014622, -0.0021384679712355 ]
  - [  -0.0009512032265775,  0.0000159302726388, -0.0022196685895324 ]
  - [  -0.0009555278811604,  0.0005359477363527, -0.0020635477267206 ]
  - [  -0.0015517435967922,  0.0002739205956459, -0.0021336451172829 ]
  - [  -0.0009547205409035,  0.0000335990916938, -0.0022253212518990 ]
  - [  -0.0015507559292018,  0.0002927943132818, -0.0021477192640305 ]
  - [  -0.0009479252621531,  0.0005579784046859, -0.0020690253004432 ]
  - [   0.0003578758041840,  0.0005927719175816, -0.0024657472968102 ]
  - [   0.0006586033850908,  0.0003755604848266, -0.0022466033697128 ]
  - [   0.0006562811322510,  0.0008163508027792, -0.0026882477104664 ]
  - [   0.0002128744672518,  0.0006334651261568, -0.0024647908285260 ]
  - [   0.0002198805304943,  0.0005515324883163, -0.0024698413908482 ]
  - [   0.0012386990711093,  0.0005935099907219, -0.0024659833870828 ]
  - [   0.0006502307951450,  0.0003056367859244, -0.0022584823891521 ]
  - [   0.0003676919732243,  0.0005934899672866, -0.0024688718840480 ]
  - [   0.0006524699274451,  0.0008767261169851, -0.0026738503947854 ]
  - [   0.0026201105210930,  0.0026320940814912, -0.0017021778039634 ]
  - [   0.0001848745159805,  0.0005933479405940, -0.0040811123326421 ]
  - [   0.0023908754810691, -0.0012522349134088, -0.0062642069533467 ]
  - [  -0.0001490134745836,  0.0005977773107588, -0.0041019581258297 ]
  - [  -0.0003020684234798,  0.0008616754785180, -0.0043069049715996 ]
  - [  -0.0002949589397758,  0.0003233645111322, -0.0038816332817078 ]
  - [  -0.0002036741643678,  0.0006161518394947, -0.0041077639907598 ]
  - [  -0.0002057930978481,  0.0005615241825581, -0.0040692295879126 ]
  - [  -0.0008283054921776,  0.0006210412830114, -0.0041070114821196 ]
  - [   0.0002266614465043, -0.0012980782194063,  0.0067441863939166 ]
  - [  -0.0002859915839508, -0.0012740483507514,  0.0066928840242326 ]
  - [   0.0002117133117281, -0.0012470885412768,  0.0066180489957333 ]
  - [   0.0000084542043624, -0.0012799630640075,  0.0066948020830750 ]
  - [   0.0000802568829386, -0.0014886808348820,  0.0067951101809740 ]
  - [   0.0000761848932598, -0.0010634610662237,  0.0065944427624345 ]
  - [   0.0010356198763475, -0.0018848589388654,  0.0058467346243560 ]
  - [   0.0010543168755248, -0.0006562342168763,  0.0075555862858891 ]
  - [   0.0002690242254175, -0.0012714935000986,  0.0066978414542973 ]
  - [   0.0004371742543299, -0.0003099110908806,  0.0047959857620299 ]
  - [   0.0004309130308684, -0.0007506418041885,  0.0052340398542583 ]
  - [   0.0001441451022401, -0.0005305646918714,  0.0050163567066193 ]
  - [   0.0004287320189178, -0.0002407359424978,  0.0048079239204526 ]
  - [   0.0001491615548730, -0.0005296068266034,  0.0050175860524178 ]
  - [   0.0004325867630541, -0.0008101607672870,  0.0052220271900296 ]
  - [   0.0010208422318101, -0.0005313088186085,  0.0050162812694907 ]
  - [  -0.0000083255581558, -0.0005713866557926,  0.0050133327022195 ]
  - [  -0.0000013252720237, -0.0004854951985180,  0.0050206836313009 ]
  - [   0.0027439449913800, -0.0024392511695623, -0.0003959685564041 ]
  - [   0.0003401960711926, -0.0004268912598491,  0.0019714082591236 ]
  - [   0.0025031794793904,  0.0014141057617962,  0.0041070776060224 ]
  - [  -0.0006687445566058, -0.0004634358920157,  0.0020034080371261 ]
  - [  -0.0000501698814332, -0.0004396513104439,  0.0019860072061419 ]
  - [  -0.0000572686549276, -0.0003947159275413,  0.0019584288820624 ]
  - [  -0.0001495494507253, -0.0006975214928389,  0.0021982821635902 ]
  - [  -0.0001518977805972, -0.0001408881507814,  0.0017510093748569 ]
  - [  -0.0000063716433942, -0.0004151016473770,  0.0019687809981406 ]
  - [   0.0008993316441774,  0.0007723536109552, -0.0050269286148250 ]
  - [   0.0003790862392634,  0.0007522646919824, -0.0049827443435788 ]
  - [   0.0008897928055376,  0.0007365114870481, -0.0049276524223387 ]
  - [   0.0009255209006369,  0.0007451879791915, -0.0049771405756474 ]
  - [   0.0017042993567884,  0.0013629961758852, -0.0041364151984453 ]
  - [   0.0017242096364498,  0.0001293229870498, -0.0058451942168176 ]
  - [   0.0007382384501398,  0.0009632250294089, -0.0050752279348671 ]
  - [   0.0007372596301138,  0.0005354350432754, -0.0048738899640739 ]
  - [   0.0006735376082361,  0.0007546171545982, -0.0049843350425363 ]
- atom:    1
  displacement:
    [  -0.0100000000000000,  0.0000000000000000,  0.0000000000000000 ]
  forces:
  - [   0.0165499392896891,  0.0002639549784362, -0.0021470566280186 ]
  - [  -0.0019884554203600,  0.0002944669686258, -0.0021495483815670 ]
  - [  -0.0019402422476560,  0.0002860999666154, -0.0021399133838713 ]
  - [  -0.0015773451887071,  0.0005378085188568, -0.0020575313828886 ]
  - [  -0.0015785646392033,  0.0000263000838459, -0.0022300337441266 ]
  - [  -0.0009795650839806,  0.0002741231583059, -0.0021334537304938 ]
  - [  -0.0015814501093701,  0.0005426788702607, -0.0020597656257451 ]
  - [  -0.0009783189743757,  0.0002927074674517, -0.0021483805030584 ]
  - [  -0.0015715747140348,  0.0000418936833739, -0.0022314116358757 ]
  - [   0.0007550686714239,  0.0005938708782196, -0.0024666693061590 ]
  - [   0.0004605016147252,  0.0008151521906257, -0.0026877671480179 ]
  - [   0.0004578490043059,  0.0003768261522055, -0.0022451244294643 ]
  - [   0.0008965103188530,  0.0005512433126569, -0.0024706632830203 ]
  - [   0.0009012834052555,  0.0006340611726046, -0.0024643382057548 ]
  - [  -0.0001269744825549,  0.0005922960117459, -0.0024687252007425 ]
  - [   0.0004611492622644,  0.0008778767660260, -0.0026734918355942 ]
  - [   0.0007426021620631,  0.0005930983461440, -0.0024696169421077 ]
  - [   0.0004661215934902,  0.0003055161796510, -0.0022582551464438 ]
  - [  -0.0029166382737458, -0.0012746625579894, -0.0062765199691057 ]
  - [  -0.0006930348463356,  0.0005930503830314, -0.0040819090791047 ]
  - [  -0.0030952347442508,  0.0026162005960941, -0.0017404761165380 ]
  - [  -0.0003449791111052,  0.0005973861552775, -0.0041018929332495 ]
  - [  -0.0002030851319432,  0.0003091259859502, -0.0038603376597166 ]
  - [  -0.0001980550587177,  0.0008773659355938, -0.0043280608952045 ]
  - [  -0.0003022159799002,  0.0005659982562065, -0.0040732566267252 ]
  - [  -0.0003069996018894,  0.0006106137298048, -0.0041019227355719 ]
  - [   0.0003185348759871,  0.0006221188232303, -0.0041111279278994 ]
  - [  -0.0001544753176859, -0.0012479507131502,  0.0066233654506505 ]
  - [   0.0003468504874036, -0.0012739690719172,  0.0066918800584972 ]
  - [  -0.0001589004677953, -0.0012992749689147,  0.0067532630637288 ]
  - [   0.0000549018077436, -0.0012758867815137,  0.0066937310621142 ]
  - [  -0.0000160574709298, -0.0010617132065818,  0.0065923212096095 ]
  - [  -0.0000169410632225, -0.0014905094867572,  0.0067961085587740 ]
  - [  -0.0009898537537083, -0.0006564074428752,  0.0075549446046352 ]
  - [  -0.0009794428478926, -0.0018900310387835,  0.0058424300514162 ]
  - [  -0.0002087534521706, -0.0012737577781081,  0.0066968817263842 ]
  - [   0.0002412064932287, -0.0007505044341087,  0.0052374657243490 ]
  - [   0.0002381281519774, -0.0003106356598437,  0.0047988579608500 ]
  - [   0.0005327517865226, -0.0005278829485178,  0.0050144586712122 ]
  - [   0.0002419315278530, -0.0008128478657454,  0.0052225505933166 ]
  - [   0.0005257287994027, -0.0005295856390148,  0.0050165643915534 ]
  - [   0.0002425801940262, -0.0002432533074170,  0.0048104878515005 ]
  - [  -0.0003460650332272, -0.0005287299863994,  0.0050177415832877 ]
  - [   0.0006767394952476, -0.0004865354858339,  0.0050209676846862 ]
  - [   0.0006815684027970, -0.0005712127313018,  0.0050135413184762 ]
  - [  -0.0027418767567724,  0.0014314069412649,  0.0041424781084061 ]
  - [  -0.0005441475659609, -0.0004260381683707,  0.0019723335281014 ]
  - [  -0.0029231668449938, -0.0024043153971434, -0.0003736955113709 ]
  - [   0.0004572288598865, -0.0004464201629162,  0.0019895276054740 ]
  - [  -0.0001521916128695, -0.0003931638784707,  0.0019562412053347 ]
  - [  -0.0001534344628453, -0.0004445617087185,  0.0019903928041458 ]
  - [  -0.0000540092587471, -0.0001428904943168,  0.0017518843524158 ]
  - [  -0.0000539910979569, -0.0006977757439017,  0.0021997676230967 ]
  - [  -0.0001998296938837, -0.0004140525124967,  0.0019691986963153 ]
  - [   0.0005052404012531,  0.0007312399102375, -0.0049239010550082 ]
  - [   0.0010129380971193,  0.0007528214482591, -0.0049828956834972 ]
  - [   0.0004913073498756,  0.0007687358884141, -0.0050224559381604 ]
  - [   0.0004576372448355,  0.0007468764670193, -0.0049768160097301 ]
  - [  -0.0003280346281826,  0.0001315739937127, -0.0058422642759979 ]
  - [  -0.0003165723755956,  0.0013648597523570, -0.0041345809586346 ]
  - [   0.0006451420485973,  0.0005357442423701, -0.0048739351332188 ]
  - [   0.0006427718326449,  0.0009621568024158, -0.0050761918537319 ]
  - [   0.0007162680849433,  0.0007573319599032, -0.0049853920936584 ]
- atom:    1
  displacement:
    [  -0.0049737011325211,  0.0086753845473477,  0.0000000000000000 ]
  forces:
  - [   0.0076090516522527, -0.0155260255560279, -0.0020682318136096 ]
  - [  -0.0016231547342613,  0.0004303324967623, -0.0020684166811407 ]
  - [  -0.0016035739099607,  0.0004263985902071, -0.0020543620921671 ]
  - [  -0.0016383504262194,  0.0009418418630958, -0.0021410519257188 ]
  - [  -0.0012000121641904,  0.0006926241330802, -0.0022290553897619 ]
  - [  -0.0011231601238251,  0.0000288537703454, -0.0021331831812859 ]
  - [  -0.0016505692619830,  0.0009518528822809, -0.0021365685388446 ]
  - [  -0.0011227116920054,  0.0000459677539766, -0.0021481914445758 ]
  - [  -0.0011918209493160,  0.0007069446146488, -0.0022269478067756 ]
  - [   0.0006546014919877,  0.0005643968470395, -0.0023967623710632 ]
  - [   0.0003212951996829,  0.0005401456728578, -0.0026121437549591 ]
  - [   0.0006964984349906,  0.0003228802233934, -0.0023917313665152 ]
  - [   0.0007610142929479,  0.0005757631734014, -0.0022958815097809 ]
  - [   0.0006941147148609,  0.0006169378757477, -0.0022911797277629 ]
  - [   0.0002157991257263,  0.0011010235175490, -0.0024968530051410 ]
  - [   0.0002599046565592,  0.0006424672901630, -0.0027215322479606 ]
  - [   0.0006490643136203,  0.0006165788508952, -0.0025037191808224 ]
  - [   0.0007624668069184,  0.0003580008633435, -0.0025162426754832 ]
  - [   0.0000336868688464,  0.0001275795511901, -0.0040638037025928 ]
  - [  -0.0004697297699749,  0.0004044864326715, -0.0043130898848176 ]
  - [  -0.0034144544042647,  0.0021266476251185, -0.0017016194760799 ]
  - [  -0.0002957908436656,  0.0006039878353477, -0.0041280668228865 ]
  - [   0.0000142985954881,  0.0006930949166417, -0.0038601290434599 ]
  - [  -0.0004650659393519,  0.0009796041995287, -0.0041011814028025 ]
  - [  -0.0002557762491051,  0.0006507271900773, -0.0040734373033047 ]
  - [  -0.0003004405880347,  0.0006716176867485, -0.0040859635919333 ]
  - [   0.0000104174250737,  0.0038789585232735, -0.0063124112784863 ]
  - [  -0.0000879541548784, -0.0010929062264040,  0.0066858027130365 ]
  - [   0.0001880367199192, -0.0011407233541831,  0.0067874644882977 ]
  - [  -0.0000409666536143, -0.0011177369160578,  0.0067459042184055 ]
  - [   0.0000406886974815, -0.0000911174574867,  0.0058510387316346 ]
  - [  -0.0001765253255144, -0.0013348780339584,  0.0065994234755635 ]
  - [   0.0001913003216032, -0.0015495239058509,  0.0067008044570684 ]
  - [  -0.0010142648825422, -0.0006642395746894,  0.0075593185611069 ]
  - [   0.0000616081524640, -0.0012806443264708,  0.0067044813185930 ]
  - [  -0.0000871856100275, -0.0011638560099527,  0.0065702646970749 ]
  - [   0.0004793496627826, -0.0008045285940170,  0.0050905789248645 ]
  - [   0.0000966369552771, -0.0005847024731338,  0.0048708892427385 ]
  - [   0.0004345475463197, -0.0005510640330613,  0.0050848852843046 ]
  - [   0.0005383407697082, -0.0007618556264788,  0.0049661239609122 ]
  - [   0.0004310375079513, -0.0005052811466157,  0.0049823233857751 ]
  - [   0.0000430461950600, -0.0004802495241165,  0.0047654779627919 ]
  - [  -0.0000030435621738, -0.0000180653296411,  0.0049896966665983 ]
  - [   0.0004668557085097, -0.0005070152692497,  0.0051916837692261 ]
  - [   0.0005479203537107, -0.0005475766956806,  0.0051887482404709 ]
  - [  -0.0030209452379495,  0.0010063736699522,  0.0041787857189775 ]
  - [  -0.0003240304067731, -0.0006113951094449,  0.0017447643913329 ]
  - [   0.0002307887189090, -0.0008336459286511,  0.0020352387800813 ]
  - [   0.0001858314499259,  0.0030989288352430, -0.0004307506605983 ]
  - [  -0.0001484106760472, -0.0003351783379912,  0.0019711069762707 ]
  - [  -0.0001077563501894, -0.0003618123009801,  0.0019904971122742 ]
  - [  -0.0003158077597618, -0.0000419877469540,  0.0019745663739741 ]
  - [   0.0001595104113221, -0.0003200555220246,  0.0021997094154358 ]
  - [  -0.0001514269970357, -0.0004130881279707,  0.0019429977983236 ]
  - [   0.0006208862178028,  0.0009093034896068, -0.0049325665459037 ]
  - [   0.0008529077749699,  0.0008864992996678, -0.0048896945081651 ]
  - [   0.0005846982821822,  0.0009300372330472, -0.0049929227679968 ]
  - [   0.0005734667647630,  0.0008788118138909, -0.0050771199166775 ]
  - [   0.0007210089825094,  0.0007495637983084, -0.0049753454513848 ]
  - [  -0.0003382614813745,  0.0013616578653455, -0.0041301087476313 ]
  - [   0.0008548586629331,  0.0004753749817610, -0.0049675595946610 ]
  - [   0.0004805643111467,  0.0006871037185192, -0.0050693522207439 ]
  - [   0.0007050912827253,  0.0019557857885957, -0.0058353869244456 ]
- atom:    1
  displacement:
    [   0.0049737011325211, -0.0086753845473477,  0.0000000000000000 ]
  forces:
  - [  -0.0101311141625047,  0.0160825196653605, -0.0022082631476223 ]
  - [  -0.0009282683604397,  0.0001521711237729, -0.0022350111976266 ]
  - [  -0.0009021090809256,  0.0001516025513411, -0.0022199316881597 ]
  - [  -0.0008863963303156, -0.0003905915655196, -0.0021406430751085 ]
  - [  -0.0013373848050833, -0.0001273909583688, -0.0020723445340991 ]
  - [  -0.0014074125792831,  0.0005208058282733, -0.0021339301019907 ]
  - [  -0.0008882003603503, -0.0003742740955204, -0.0021444205194712 ]
  - [  -0.0014071152545512,  0.0005380494985729, -0.0021482976153493 ]
  - [  -0.0013239830732346, -0.0001093700993806, -0.0020651398226619 ]
  - [   0.0004578421649057,  0.0006194384768605, -0.0025358553975821 ]
  - [   0.0007991063757800,  0.0006502438336611, -0.0023205857723951 ]
  - [   0.0004171483160462,  0.0008711358532310, -0.0025408063083887 ]
  - [   0.0003482421161607,  0.0006091156974435, -0.0026406650431454 ]
  - [   0.0004280213033780,  0.0005701966583729, -0.0026419414207339 ]
  - [   0.0008938570390455,  0.0000817752443254, -0.0024381484836340 ]
  - [   0.0008510914631188,  0.0005436115898192, -0.0022122459486127 ]
  - [   0.0004618840757757,  0.0005688583478332, -0.0024342210963368 ]
  - [   0.0003562578931451,  0.0008247075602412, -0.0024173278361559 ]
  - [  -0.0006006867624819,  0.0010262536816299, -0.0041618379764259 ]
  - [  -0.0000326810404658,  0.0007780687883496, -0.0038546924479306 ]
  - [   0.0026679194997996, -0.0008229403756559, -0.0062985625118017 ]
  - [  -0.0001975444611162,  0.0005957088433206, -0.0040750671178102 ]
  - [  -0.0005139433778822,  0.0004870421253145, -0.0043074563145638 ]
  - [  -0.0000339837279171,  0.0002243034541607, -0.0041038002818823 ]
  - [  -0.0002495535009075,  0.0005324790254235, -0.0041075330227613 ]
  - [  -0.0002088494074997,  0.0005039330571890, -0.0040858853608370 ]
  - [  -0.0005576767725870, -0.0029758815653622, -0.0016559362411499 ]
  - [   0.0001449192932341, -0.0014572940999642,  0.0067017665132880 ]
  - [  -0.0001264154707314, -0.0014078275999054,  0.0065995426848531 ]
  - [   0.0000969534157775, -0.0014234053669497,  0.0066263312473893 ]
  - [   0.0000210913021874, -0.0024768919683993,  0.0075467396527529 ]
  - [   0.0002416513743810, -0.0012137246085331,  0.0067882593721151 ]
  - [  -0.0001329100632574, -0.0010037465253845,  0.0066887382417917 ]
  - [   0.0010584045667201, -0.0018810295732692,  0.0058420626446605 ]
  - [   0.0000039034239308, -0.0012732747709379,  0.0066854502074420 ]
  - [   0.0001506232074462, -0.0013942755758762,  0.0068091577850282 ]
  - [   0.0001989405427594, -0.0002568275667727,  0.0049415864050388 ]
  - [   0.0005713818827644, -0.0004768669605255,  0.0051597049459815 ]
  - [   0.0002435994101688, -0.0005046189762652,  0.0049458164721727 ]
  - [   0.0001322696916759, -0.0002922138664871,  0.0050645028240979 ]
  - [   0.0002437927760184, -0.0005531234201044,  0.0050515988841653 ]
  - [   0.0006322520785034, -0.0005748583935201,  0.0052685486152768 ]
  - [   0.0006794435903430, -0.0010388123337179,  0.0050449846312404 ]
  - [   0.0002014907076955, -0.0005531234201044,  0.0048414058983326 ]
  - [   0.0001323693431914, -0.0005089740734547,  0.0048474026843905 ]
  - [   0.0030654391739517, -0.0019538756459951, -0.0004371744580567 ]
  - [   0.0001153014600277, -0.0002377610653639,  0.0022033238783479 ]
  - [  -0.0003813309594989,  0.0000456338748336,  0.0019436264410615 ]
  - [  -0.0003617843613029, -0.0036692265421152,  0.0041746534407139 ]
  - [  -0.0000577231403440, -0.0005002906545997,  0.0019713873043656 ]
  - [  -0.0001032426953316, -0.0004783892072737,  0.0019588349387050 ]
  - [   0.0001179073005915, -0.0008007581345737,  0.0019710795022547 ]
  - [  -0.0003712824545801, -0.0005282987840474,  0.0017512119375169 ]
  - [  -0.0000551510602236, -0.0004214029759169,  0.0019940594211221 ]
  - [   0.0007814560085535,  0.0005890988977626, -0.0050188391469419 ]