# Thermal properties / unit cell (natom)

unit:
  temperature:   K
  free_energy:   kJ/mol
  entropy:       J/K/mol
  heat_capacity: J/K/mol

natom: 7    
cutoff_frequency: 0.00000
num_modes: 127764
num_integrated_modes: 126209

zero_point_energy:       7.2047586

thermal_properties:
- temperature:         0.0000000
  free_energy:         7.2047586
  entropy:             0.0000000
  heat_capacity:       0.0000000
  energy:              7.2047586

- temperature:        10.0000000
  free_energy:         7.1749268
  entropy:             9.0347291
  heat_capacity:      17.4561037
  energy:              7.2652741

- temperature:        20.0000000
  free_energy:         6.9772177
  entropy:            32.3182807
  heat_capacity:      56.3662455
  energy:              7.6235834

- temperature:        30.0000000
  free_energy:         6.5046185
  entropy:            62.7260899
  heat_capacity:      94.2448488
  energy:              8.3864012

- temperature:        40.0000000
  free_energy:         5.7217693
  entropy:            93.5758622
  heat_capacity:     119.4607497
  energy:              9.4648037

- temperature:        50.0000000
  free_energy:         4.6412469
  entropy:           122.0520215
  heat_capacity:     135.1219308
  energy:             10.7438480

- temperature:        60.0000000
  free_energy:         3.2904518
  entropy:           147.6316497
  heat_capacity:     145.0611816
  energy:             12.1483507

- temperature:        70.0000000
  free_energy:         1.6976009
  entropy:           170.5191751
  heat_capacity:     151.6284681
  energy:             13.6339432

- temperature:        80.0000000
  free_energy:        -0.1121753
  entropy:           191.0790462
  heat_capacity:     156.1461061
  energy:             15.1741484

- temperature:        90.0000000
  free_energy:        -2.1174114
  entropy:           209.6665276
  heat_capacity:     159.3671423
  energy:             16.7525761

- temperature:       100.0000000
  free_energy:        -4.2999526
  entropy:           226.5862038
  heat_capacity:     161.7356563
  energy:             18.3586678

- temperature:       110.0000000
  free_energy:        -6.6444175
  entropy:           242.0889350
  heat_capacity:     163.5238280
  energy:             19.9853654

- temperature:       120.0000000
  free_energy:        -9.1376934
  entropy:           256.3790543
  heat_capacity:     164.9047062
  energy:             21.6277931

- temperature:       130.0000000
  free_energy:       -11.7685149
  entropy:           269.6230756
  heat_capacity:     165.9920258
  energy:             23.2824849

- temperature:       140.0000000
  free_energy:       -14.5271253
  entropy:           281.9574257
  heat_capacity:     166.8627811
  energy:             24.9469143

- temperature:       150.0000000
  free_energy:       -17.4050086
  entropy:           293.4947155
  heat_capacity:     167.5704773
  energy:             26.6191987

- temperature:       160.0000000
  free_energy:       -20.3946768
  entropy:           304.3286568
  heat_capacity:     168.1531709
  energy:             28.2979083

- temperature:       170.0000000
  free_energy:       -23.4895007
  entropy:           314.5378767
  heat_capacity:     168.6384950
  energy:             29.9819383

- temperature:       180.0000000
  free_energy:       -26.6835747
  entropy:           324.1888721
  heat_capacity:     169.0468879
  energy:             31.6704223

- temperature:       190.0000000
  free_energy:       -29.9716072
  entropy:           333.3383076
  heat_capacity:     169.3937184
  energy:             33.3626713

- temperature:       200.0000000
  free_energy:       -33.3488318
  entropy:           342.0348132
  heat_capacity:     169.6907162
  energy:             35.0581308

- temperature:       210.0000000
  free_energy:       -36.8109343
  entropy:           350.3204013
  heat_capacity:     169.9469557
  energy:             36.7563500

- temperature:       220.0000000
  free_energy:       -40.3539923
  entropy:           358.2315922
  heat_capacity:     170.1695428
  energy:             38.4569580

- temperature:       230.0000000
  free_energy:       -43.9744250
  entropy:           365.8003154
  heat_capacity:     170.3641045
  energy:             40.1596475

- temperature:       240.0000000
  free_energy:       -47.6689510
  entropy:           373.0546363
  heat_capacity:     170.5351424
  energy:             41.8641617

- temperature:       250.0000000
  free_energy:       -51.4345527
  entropy:           380.0193474
  heat_capacity:     170.6862917
  energy:             43.5702841

- temperature:       260.0000000
  free_energy:       -55.2684462
  entropy:           386.7164515
  heat_capacity:     170.8205133
  energy:             45.2778312

- temperature:       270.0000000
  free_energy:       -59.1680553
  entropy:           393.1655609
  heat_capacity:     170.9402380
  energy:             46.9866461

- temperature:       280.0000000
  free_energy:       -63.1309895
  entropy:           399.3842280
  heat_capacity:     171.0474766
  energy:             48.6965944

- temperature:       290.0000000
  free_energy:       -67.1550245
  entropy:           405.3882211
  heat_capacity:     171.1439034
  energy:             50.4075597

- temperature:       300.0000000
  free_energy:       -71.2380858
  entropy:           411.1917565
  heat_capacity:     171.2309218
  energy:             52.1194411

- temperature:       310.0000000
  free_energy:       -75.3782344
  entropy:           416.8076938
  heat_capacity:     171.3097152
  energy:             53.8321507

- temperature:       320.0000000
  free_energy:       -79.5736534
  entropy:           422.2477023
  heat_capacity:     171.3812867
  energy:             55.5456113

- temperature:       330.0000000
  free_energy:       -83.8226375
  entropy:           427.5224022
  heat_capacity:     171.4464913
  energy:             57.2597552

- temperature:       340.0000000
  free_energy:       -88.1235828
  entropy:           432.6414859
  heat_capacity:     171.5060614
  energy:             58.9745224

- temperature:       350.0000000
  free_energy:       -92.4749782
  entropy:           437.6138227
  heat_capacity:     171.5606271
  energy:             60.6898598

- temperature:       360.0000000
  free_energy:       -96.8753973
  entropy:           442.4475483
  heat_capacity:     171.6107330
  energy:             62.4057201

- temperature:       370.0000000
  free_energy:      -101.3234921
  entropy:           447.1501439
  heat_capacity:     171.6568515
  energy:             64.1220611

- temperature:       380.0000000
  free_energy:      -105.8179861
  entropy:           451.7285035
  heat_capacity:     171.6993943
  energy:             65.8388452

- temperature:       390.0000000
  free_energy:      -110.3576693
  entropy:           456.1889939
  heat_capacity:     171.7387213
  energy:             67.5560383

- temperature:       400.0000000
  free_energy:      -114.9413928
  entropy:           460.5375069
  heat_capacity:     171.7751484
  energy:             69.2736100

- temperature:       410.0000000
  free_energy:      -119.5680644
  entropy:           464.7795049
  heat_capacity:     171.8089535
  energy:             70.9915326

- temperature:       420.0000000
  free_energy:      -124.2366448
  entropy:           468.9200617
  heat_capacity:     171.8403821
  energy:             72.7097811

- temperature:       430.0000000
  free_energy:      -128.9461433
  entropy:           472.9638984
  heat_capacity:     171.8696517
  energy:             74.4283330

- temperature:       440.0000000
  free_energy:      -133.6956151
  entropy:           476.9154151
  heat_capacity:     171.8969553
  energy:             76.1471676

- temperature:       450.0000000
  free_energy:      -138.4841576
  entropy:           480.7787194
  heat_capacity:     171.9224652
  energy:             77.8662661

- temperature:       460.0000000
  free_energy:      -143.3109082
  entropy:           484.5576515
  heat_capacity:     171.9463348
  energy:             79.5856114

- temperature:       470.0000000
  free_energy:      -148.1750414
  entropy:           488.2558069
  heat_capacity:     171.9687018
  energy:             81.3051878

- temperature:       480.0000000
  free_energy:      -153.0757664
  entropy:           491.8765568
  heat_capacity:     171.9896896
  energy:             83.0249809

- temperature:       490.0000000
  free_energy:      -158.0123251
  entropy:           495.4230663
  heat_capacity:     172.0094093
  energy:             84.7449774

- temperature:       500.0000000
  free_energy:      -162.9839902
  entropy:           498.8983107
  heat_capacity:     172.0279608
  energy:             86.4651652

- temperature:       510.0000000
  free_energy:      -167.9900631
  entropy:           502.3050904
  heat_capacity:     172.0454347
  energy:             88.1855330

- temperature:       520.0000000
  free_energy:      -173.0298726
  entropy:           505.6460445
  heat_capacity:     172.0619127
  energy:             89.9060705

- temperature:       530.0000000
  free_energy:      -178.1027729
  entropy:           508.9236624
  heat_capacity:     172.0774691
  energy:             91.6267682

- temperature:       540.0000000
  free_energy:      -183.2081426
  entropy:           512.1402956
  heat_capacity:     172.0921712
  energy:             93.3476171

- temperature:       550.0000000
  free_energy:      -188.3453829
  entropy:           515.2981671
  heat_capacity:     172.1060806
  energy:             95.0686090

- temperature:       560.0000000
  free_energy:      -193.5139171
  entropy:           518.3993809
  heat_capacity:     172.1192531
  energy:             96.7897362

- temperature:       570.0000000
  free_energy:      -198.7131884
  entropy:           521.4459300
  heat_capacity:     172.1317398
  energy:             98.5109918

- temperature:       580.0000000
  free_energy:      -203.9426598
  entropy:           524.4397046
  heat_capacity:     172.1435876
  energy:            100.2323689

- temperature:       590.0000000
  free_energy:      -209.2018125
  entropy:           527.3824984
  heat_capacity:     172.1548393
  energy:            101.9538615

- temperature:       600.0000000
  free_energy:      -214.4901455
  entropy:           530.2760155
  heat_capacity:     172.1655341
  energy:            103.6754638

- temperature:       610.0000000
  free_energy:      -219.8071740
  entropy:           533.1218762
  heat_capacity:     172.1757082
  energy:            105.3971705

- temperature:       620.0000000
  free_energy:      -225.1524293
  entropy:           535.9216220
  heat_capacity:     172.1853949
  energy:            107.1189764

- temperature:       630.0000000
  free_energy:      -230.5254576
  entropy:           538.6767214
  heat_capacity:     172.1946248
  energy:            108.8408768

- temperature:       640.0000000
  free_energy:      -235.9258196
  entropy:           541.3885734
  heat_capacity:     172.2034262
  energy:            110.5628674

- temperature:       650.0000000
  free_energy:      -241.3530894
  entropy:           544.0585129
  heat_capacity:     172.2118251
  energy:            112.2849440

- temperature:       660.0000000
  free_energy:      -246.8068544
  entropy:           546.6878137
  heat_capacity:     172.2198457
  energy:            114.0071027

- temperature:       670.0000000
  free_energy:      -252.2867143
  entropy:           549.2776926
  heat_capacity:     172.2275104
  energy:            115.7293398

- temperature:       680.0000000
  free_energy:      -257.7922807
  entropy:           551.8293125
  heat_capacity:     172.2348400
  energy:            117.4516518

- temperature:       690.0000000
  free_energy:      -263.3231767
  entropy:           554.3437858
  heat_capacity:     172.2418537
  energy:            119.1740355

- temperature:       700.0000000
  free_energy:      -268.8790361
  entropy:           556.8221771
  heat_capacity:     172.2485693
  energy:            120.8964879

- temperature:       710.0000000
  free_energy:      -274.4595034
  entropy:           559.2655061
  heat_capacity:     172.2550036
  energy:            122.6190059

- temperature:       720.0000000
  free_energy:      -280.0642327
  entropy:           561.6747496
  heat_capacity:     172.2611720
  energy:            124.3415870

- temperature:       730.0000000
  free_energy:      -285.6928879
  entropy:           564.0508444
  heat_capacity:     172.2670890
  energy:            126.0642285

- temperature:       740.0000000
  free_energy:      -291.3451420
  entropy:           566.3946893
  heat_capacity:     172.2727680
  energy:            127.7869280

- temperature:       750.0000000
  free_energy:      -297.0206770
  entropy:           568.7071469
  heat_capacity:     172.2782216
  energy:            129.5096832

- temperature:       760.0000000
  free_energy:      -302.7191831
  entropy:           570.9890459
  heat_capacity:     172.2834617
  energy:            131.2324917

- temperature:       770.0000000
  free_energy:      -308.4403587
  entropy:           573.2411824
  heat_capacity:     172.2884991
  energy:            132.9553517

- temperature:       780.0000000
  free_energy:      -314.1839101
  entropy:           575.4643221
  heat_capacity:     172.2933443
  energy:            134.6782611

- temperature:       790.0000000
  free_energy:      -319.9495510
  entropy:           577.6592012
  heat_capacity:     172.2980068
  energy:            136.4012180

- temperature:       800.0000000
  free_energy:      -325.7370023
  entropy:           579.8265287
  heat_capacity:     172.3024958
  energy:            138.1242206

- temperature:       810.0000000
  free_energy:      -331.5459920
  entropy:           581.9669869
  heat_capacity:     172.3068197
  energy:            139.8472674

- temperature:       820.0000000
  free_energy:      -337.3762547
  entropy:           584.0812332
  heat_capacity:     172.3109865
  energy:            141.5703565

- temperature:       830.0000000
  free_energy:      -343.2275314
  entropy:           586.1699012
  heat_capacity:     172.3150038
  energy:            143.2934866

- temperature:       840.0000000
  free_energy:      -349.0995695
  entropy:           588.2336019
  heat_capacity:     172.3188786
  energy:            145.0166561

- temperature:       850.0000000
  free_energy:      -354.9921222
  entropy:           590.2729246
  heat_capacity:     172.3226176
  energy:            146.7398637

- temperature:       860.0000000
  free_energy:      -360.9049486
  entropy:           592.2884380
  heat_capacity:     172.3262271
  energy:            148.4631080

- temperature:       870.0000000
  free_energy:      -366.8378134
  entropy:           594.2806911
  heat_capacity:     172.3297129
  energy:            150.1863878

- temperature:       880.0000000
  free_energy:      -372.7904867
  entropy:           596.2502143
  heat_capacity:     172.3330806
  energy:            151.9097019

- temperature:       890.0000000
  free_energy:      -378.7627436
  entropy:           598.1975199
  heat_capacity:     172.3363356
  energy:            153.6330491

- temperature:       900.0000000
  free_energy:      -384.7543647
  entropy:           600.1231032
  heat_capacity:     172.3394828
  energy:            155.3564283

- temperature:       910.0000000
  free_energy:      -390.7651349
  entropy:           602.0274432
  heat_capacity:     172.3425268
  energy:            157.0798384

- temperature:       920.0000000
  free_energy:      -396.7948443
  entropy:           603.9110030
  heat_capacity:     172.3454723
  energy:            158.8032785

- temperature:       930.0000000
  free_energy:      -402.8432872
  entropy:           605.7742309
  heat_capacity:     172.3483233
  energy:            160.5267475

- temperature:       940.0000000
  free_energy:      -408.9102625
  entropy:           607.6175608
  heat_capacity:     172.3510838
  energy:            162.2502446

- temperature:       950.0000000
  free_energy:      -414.9955735
  entropy:           609.4414130
  heat_capacity:     172.3537577
  energy:            163.9737689

- temperature:       960.0000000
  free_energy:      -421.0990272
  entropy:           611.2461945
  heat_capacity:     172.3563486
  energy:            165.6973195

- temperature:       970.0000000
  free_energy:      -427.2204351
  entropy:           613.0322997
  heat_capacity:     172.3588598
  energy:            167.4208956

- temperature:       980.0000000
  free_energy:      -433.3596123
  entropy:           614.8001109
  heat_capacity:     172.3612946
  energy:            169.1444964

- temperature:       990.0000000
  free_energy:      -439.5163776
  entropy:           616.5499988
  heat_capacity:     172.3636560
  energy:            170.8681213

- temperature:      1000.0000000
  free_energy:      -445.6905537
  entropy:           618.2823230
  heat_capacity:     172.3659469
  energy:            172.5917693
