phonopy:
  version: "2.37.1"
  frequency_unit_conversion_factor: 15.633302
  symmetry_tolerance: 1.00000e-05

space_group:
  type: "Immm"
  number: 71
  Hall_symbol: "-I 2 2"

primitive_matrix:
- [ -1.000000000000000,  0.000000000000000,  1.000000000000000 ]
- [ -0.000000000000000, -1.000000000000000,  1.000000000000000 ]
- [  0.000000000000000,  0.000000000000000,  1.000000000000000 ]

supercell_matrix:
- [   3,   0,   0 ]
- [   0,   3,   0 ]
- [   0,   0,   3 ]

primitive_cell:
  lattice:
  - [    -3.406075070000000,    -0.000000000000000,     0.000000000000000 ] # a
  - [     0.195433378650291,    -3.400463670881493,     0.000000000000000 ] # b
  - [     1.554931401408038,     1.747808421208997,     2.475621425821548 ] # c
  points:
  - symbol: Sn # 1
    coordinates: [  0.000000000000000,  0.000000000000000,  0.000000000000000 ]
    mass: 118.710000
  reciprocal_lattice: # without 2pi
  - [    -0.293593059298015,    -0.016873546986612,     0.196317898038678 ] # a*
  - [     0.000000000000000,    -0.294077542590176,     0.207621084575558 ] # b*
  - [    -0.000000000000000,    -0.000000000000000,     0.403938982580160 ] # c*

unit_cell:
  lattice:
  - [     3.406075070000000,     0.000000000000000,     0.000000000000000 ] # a
  - [    -0.195433378650291,     3.400463670881493,     0.000000000000000 ] # b
  - [    -1.655710289941672,    -1.652655249672495,     2.475621425821548 ] # c
  points:
  - symbol: Sn # 1
    coordinates: [  0.000000000000000,  0.000000000000000,  0.000000000000000 ]
    mass: 118.710000
    reduced_to: 1

supercell:
  lattice:
  - [    10.218225210000000,     0.000000000000000,     0.000000000000000 ] # a
  - [    -0.586300135950872,    10.201391012644478,     0.000000000000000 ] # b
  - [    -4.967130869825016,    -4.957965749017486,     7.426864277464643 ] # c
  points:
  - symbol: Sn # 1
    coordinates: [  0.000000000000000,  0.000000000000000,  0.000000000000000 ]
    mass: 118.710000
    reduced_to: 1
  - symbol: Sn # 2
    coordinates: [  0.333333333333333,  0.000000000000000,  0.000000000000000 ]
    mass: 118.710000
    reduced_to: 1
  - symbol: Sn # 3
    coordinates: [  0.666666666666667,  0.000000000000000,  0.000000000000000 ]
    mass: 118.710000
    reduced_to: 1
  - symbol: Sn # 4
    coordinates: [  0.000000000000000,  0.333333333333333,  0.000000000000000 ]
    mass: 118.710000
    reduced_to: 1
  - symbol: Sn # 5
    coordinates: [  0.333333333333333,  0.333333333333333,  0.000000000000000 ]
    mass: 118.710000
    reduced_to: 1
  - symbol: Sn # 6
    coordinates: [  0.666666666666667,  0.333333333333333,  0.000000000000000 ]
    mass: 118.710000
    reduced_to: 1
  - symbol: Sn # 7
    coordinates: [  0.000000000000000,  0.666666666666667,  0.000000000000000 ]
    mass: 118.710000
    reduced_to: 1
  - symbol: Sn # 8
    coordinates: [  0.333333333333333,  0.666666666666667,  0.000000000000000 ]
    mass: 118.710000
    reduced_to: 1
  - symbol: Sn # 9
    coordinates: [  0.666666666666667,  0.666666666666667,  0.000000000000000 ]
    mass: 118.710000
    reduced_to: 1
  - symbol: Sn # 10
    coordinates: [  0.000000000000000,  0.000000000000000,  0.333333333333333 ]
    mass: 118.710000
    reduced_to: 1
  - symbol: Sn # 11
    coordinates: [  0.333333333333333,  0.000000000000000,  0.333333333333333 ]
    mass: 118.710000
    reduced_to: 1
  - symbol: Sn # 12
    coordinates: [  0.666666666666667,  0.000000000000000,  0.333333333333333 ]
    mass: 118.710000
    reduced_to: 1
  - symbol: Sn # 13
    coordinates: [  0.000000000000000,  0.333333333333333,  0.333333333333333 ]
    mass: 118.710000
    reduced_to: 1
  - symbol: Sn # 14
    coordinates: [  0.333333333333333,  0.333333333333333,  0.333333333333333 ]
    mass: 118.710000
    reduced_to: 1
  - symbol: Sn # 15
    coordinates: [  0.666666666666667,  0.333333333333333,  0.333333333333333 ]
    mass: 118.710000
    reduced_to: 1
  - symbol: Sn # 16
    coordinates: [  0.000000000000000,  0.666666666666667,  0.333333333333333 ]
    mass: 118.710000
    reduced_to: 1
  - symbol: Sn # 17
    coordinates: [  0.333333333333333,  0.666666666666667,  0.333333333333333 ]
    mass: 118.710000
    reduced_to: 1
  - symbol: Sn # 18
    coordinates: [  0.666666666666667,  0.666666666666667,  0.333333333333333 ]
    mass: 118.710000
    reduced_to: 1
  - symbol: Sn # 19
    coordinates: [  0.000000000000000,  0.000000000000000,  0.666666666666667 ]
    mass: 118.710000
    reduced_to: 1
  - symbol: Sn # 20
    coordinates: [  0.333333333333333,  0.000000000000000,  0.666666666666667 ]
    mass: 118.710000
    reduced_to: 1
  - symbol: Sn # 21
    coordinates: [  0.666666666666667,  0.000000000000000,  0.666666666666667 ]
    mass: 118.710000
    reduced_to: 1
  - symbol: Sn # 22
    coordinates: [  0.000000000000000,  0.333333333333333,  0.666666666666667 ]
    mass: 118.710000
    reduced_to: 1
  - symbol: Sn # 23
    coordinates: [  0.333333333333333,  0.333333333333333,  0.666666666666667 ]
    mass: 118.710000
    reduced_to: 1
  - symbol: Sn # 24
    coordinates: [  0.666666666666667,  0.333333333333333,  0.666666666666667 ]
    mass: 118.710000
    reduced_to: 1
  - symbol: Sn # 25
    coordinates: [  0.000000000000000,  0.666666666666667,  0.666666666666667 ]
    mass: 118.710000
    reduced_to: 1
  - symbol: Sn # 26
    coordinates: [  0.333333333333333,  0.666666666666667,  0.666666666666667 ]
    mass: 118.710000
    reduced_to: 1
  - symbol: Sn # 27
    coordinates: [  0.666666666666667,  0.666666666666667,  0.666666666666667 ]
    mass: 118.710000
    reduced_to: 1

displacements:
- atom:    1
  displacement:
    [   0.0100000000000000,  0.0000000000000000,  0.0000000000000000 ]
  forces:
  - [  -0.0070759775117040,  0.0005984962917864, -0.0011265035718679 ]
  - [   0.0054065808653831, -0.0002324646338820, -0.0001291014486924 ]
  - [   0.0052745426073670, -0.0002283696085215, -0.0001272503286600 ]
  - [  -0.0006580590270460, -0.0005934223299846,  0.0001778305741027 ]
  - [  -0.0016716527752578, -0.0029870753642172, -0.0000441512092948 ]
  - [  -0.0012623840011656,  0.0025733946822584, -0.0000208307174034 ]
  - [  -0.0006624178495258, -0.0005554743111134,  0.0001775794662535 ]
  - [  -0.0014581764116883,  0.0027919383719563, -0.0000227205455303 ]
  - [  -0.0016559986397624, -0.0029299659654498, -0.0000427622580901 ]
  - [   0.0008660586318001,  0.0012953139375895, -0.0020919814705849 ]
  - [   0.0011411071754992, -0.0012219937052578,  0.0019618966616690 ]
  - [  -0.0008663446642458, -0.0001080271322280,  0.0000403658486903 ]
  - [   0.0009038504213095, -0.0004687663167715, -0.0009138863533735 ]
  - [   0.0002332236617804,  0.0012739207595587,  0.0020202174782753 ]
  - [  -0.0006325615104288, -0.0002502719871700, -0.0002542227739468 ]
  - [  -0.0002302285283804, -0.0002236673608422,  0.0000401660799980 ]
  - [  -0.0004204586148262, -0.0000882558524609, -0.0002391413436271 ]
  - [   0.0008724608924240,  0.0005733016878366,  0.0000673116883263 ]
  - [   0.0008490569889545,  0.0013131648302078, -0.0021148892119527 ]
  - [  -0.0008679390884936, -0.0001244188752025,  0.0000649167923257 ]
  - [   0.0011449360754341, -0.0011927494779229,  0.0019232730846852 ]
  - [  -0.0002260035835207, -0.0002198966685683,  0.0000327155576088 ]
  - [   0.0008722564671189,  0.0005747622344643,  0.0000610194983892 ]
  - [  -0.0004251864738762, -0.0000912826508284, -0.0002514212974347 ]
  - [   0.0009153280407190, -0.0005028476007283, -0.0009564985521138 ]
  - [  -0.0006262203678489, -0.0002374124014750, -0.0002374831819907 ]
  - [   0.0002602320164442,  0.0012620741035789,  0.0020055626519024 ]

force_constants:
  format: "full"
  shape: [ 27, 27 ]
  elements:
  - # (1, 1)
    - [     0.707597843005986,    -0.059849611940425,     0.112650398356685 ]
    - [    -0.059849611940425,     0.700718421239668,    -0.106361984866055 ]
    - [     0.112650398356685,    -0.106361984866055,     0.772780475528989 ]
  - # (1, 2)
    - [    -0.534053542261262,     0.022990771238212,     0.012842788337123 ]
    - [     0.022990771265662,     0.070628961590324,     0.018443620089904 ]
    - [     0.012842788350794,     0.018443620086983,     0.066297172861926 ]
  - # (1, 3)
    - [    -0.534053542261262,     0.022990771238212,     0.012842788337123 ]
    - [     0.022990771265662,     0.070628961590324,     0.018443620089904 ]
    - [     0.012842788350794,     0.018443620086983,     0.066297172861926 ]
  - # (1, 4)
    - [     0.066004235801455,     0.057477632555648,    -0.017676342812532 ]
    - [     0.057477632534192,    -0.529428816475934,    -0.013879886114093 ]
    - [    -0.017676342814169,    -0.013879886098482,     0.066297172867239 ]
  - # (1, 5)
    - [     0.166382662589028,     0.295852083727383,     0.004345714527182 ]
    - [     0.295852083729741,     0.200389420431782,    -0.004103126430659 ]
    - [     0.004345714527845,    -0.004103126429928,    -0.112619637631747 ]
  - # (1, 6)
    - [     0.136043759145991,    -0.268250063741988,     0.002178919724774 ]
    - [    -0.268250063763155,     0.105209719234601,    -0.002057287228498 ]
    - [     0.002178919726230,    -0.002057287226352,    -0.033200175473051 ]
  - # (1, 7)
    - [     0.066004235801455,     0.057477632555648,    -0.017676342812532 ]
    - [     0.057477632534192,    -0.529428816475934,    -0.013879886114093 ]
    - [    -0.017676342814169,    -0.013879886098482,     0.066297172867239 ]
  - # (1, 8)
    - [     0.136043759145991,    -0.268250063741988,     0.002178919724774 ]
    - [    -0.268250063763155,     0.105209719234601,    -0.002057287228498 ]
    - [     0.002178919726230,    -0.002057287226352,    -0.033200175473051 ]
  - # (1, 9)
    - [     0.166382662589028,     0.295852083727383,     0.004345714527182 ]
    - [     0.295852083729741,     0.200389420431782,    -0.004103126430659 ]
    - [     0.004345714527845,    -0.004103126429928,    -0.112619637631747 ]
  - # (1, 10)
    - [    -0.085783217744075,    -0.130360109677906,     0.210275903710487 ]
    - [    -0.130360109675811,    -0.039410262103167,     0.213757915651678 ]
    - [     0.210275903709521,     0.213757915649904,    -0.271933927956998 ]
  - # (1, 11)
    - [    -0.114302070710192,     0.120737176414132,    -0.194258446132821 ]
    - [     0.120737176415544,    -0.100423919590656,     0.183414477071910 ]
    - [    -0.194258446134893,     0.183414477072332,    -0.243257117244110 ]
  - # (1, 12)
    - [     0.086740274905985,     0.011577932680723,    -0.005240569387026 ]
    - [     0.011577932682208,     0.043440243203890,    -0.024846277963746 ]
    - [    -0.005240569387292,    -0.024846277964651,     0.055515290308138 ]
  - # (1, 13)
    - [    -0.090958831264755,     0.048580713113763,     0.093519286439013 ]
    - [     0.048580713115984,    -0.085374714624997,    -0.088298817181981 ]
    - [     0.093519286439108,    -0.088298817184860,    -0.129626761408725 ]
  - # (1, 14)
    - [    -0.024628003194317,    -0.126845362478774,    -0.201340570041150 ]
    - [    -0.126845362477512,    -0.100565476677815,    -0.222194457697535 ]
    - [    -0.201340570047428,    -0.222194457701055,    -0.271933927886347 ]
  - # (1, 15)
    - [     0.062899492554734,     0.024432061322716,     0.024631117325142 ]
    - [     0.024432061321759,     0.025527454498562,     0.005111521507075 ]
    - [     0.024631117321809,     0.005111521505718,     0.021700057012385 ]
  - # (1, 16)
    - [     0.022851390627773,     0.022130394069339,    -0.003689819062820 ]
    - [     0.022130394071390,     0.065575556423154,    -0.024883826644054 ]
    - [    -0.003689819063968,    -0.024883826643894,     0.021700057016281 ]
  - # (1, 17)
    - [     0.042256350839276,     0.009021327343322,     0.024504651735695 ]
    - [     0.009021327344261,     0.087924167273298,     0.006657562553503 ]
    - [     0.024504651736902,     0.006657562550050,     0.055515290303997 ]
  - # (1, 18)
    - [    -0.087251422792633,    -0.057419750596358,    -0.006417833541412 ]
    - [    -0.057419750594052,    -0.093851543802877,     0.006059574819524 ]
    - [    -0.006417833542803,     0.006059574817264,     0.389156269466516 ]
  - # (1, 19)
    - [    -0.085783217744075,    -0.130360109677906,     0.210275903710487 ]
    - [    -0.130360109675811,    -0.039410262103167,     0.213757915651678 ]
    - [     0.210275903709521,     0.213757915649904,    -0.271933927956998 ]
  - # (1, 20)
    - [     0.086740274905985,     0.011577932680723,    -0.005240569387026 ]
    - [     0.011577932682208,     0.043440243203890,    -0.024846277963746 ]
    - [    -0.005240569387292,    -0.024846277964651,     0.055515290308138 ]
  - # (1, 21)
    - [    -0.114302070710192,     0.120737176414132,    -0.194258446132821 ]
    - [     0.120737176415544,    -0.100423919590656,     0.183414477071909 ]
    - [    -0.194258446134893,     0.183414477072332,    -0.243257117244110 ]
  - # (1, 22)
    - [     0.022851390627773,     0.022130394069339,    -0.003689819062820 ]
    - [     0.022130394071390,     0.065575556423154,    -0.024883826644054 ]
    - [    -0.003689819063968,    -0.024883826643894,     0.021700057016281 ]
  - # (1, 23)
    - [    -0.087251422792633,    -0.057419750596358,    -0.006417833541412 ]
    - [    -0.057419750594052,    -0.093851543802877,     0.006059574819524 ]
    - [    -0.006417833542803,     0.006059574817264,     0.389156269466516 ]
  - # (1, 24)
    - [     0.042256350839276,     0.009021327343322,     0.024504651735695 ]
    - [     0.009021327344261,     0.087924167273298,     0.006657562553503 ]
    - [     0.024504651736902,     0.006657562550050,     0.055515290303997 ]
  - # (1, 25)
    - [    -0.090958831264755,     0.048580713113763,     0.093519286439013 ]
    - [     0.048580713115984,    -0.085374714624997,    -0.088298817181981 ]
    - [     0.093519286439108,    -0.088298817184860,    -0.129626761408725 ]
  - # (1, 26)
    - [     0.062899492554734,     0.024432061322716,     0.024631117325142 ]
    - [     0.024432061321759,     0.025527454498562,     0.005111521507075 ]
    - [     0.024631117321809,     0.005111521505718,     0.021700057012385 ]
  - # (1, 27)
    - [    -0.024628003194317,    -0.126845362478774,    -0.201340570041150 ]
    - [    -0.126845362477512,    -0.100565476677815,    -0.222194457697535 ]
    - [    -0.201340570047428,    -0.222194457701055,    -0.271933927886347 ]
  - # (2, 1)
    - [    -0.534053542261262,     0.022990771265662,     0.012842788350794 ]
    - [     0.022990771238212,     0.070628961590324,     0.018443620086983 ]
    - [     0.012842788337123,     0.018443620089904,     0.066297172861926 ]
  - # (2, 2)
    - [     0.707597843007386,    -0.059849611999100,     0.112650398317798 ]
    - [    -0.059849611999100,     0.700718421358318,    -0.106361984911595 ]
    - [     0.112650398317798,    -0.106361984911595,     0.772780475417141 ]
  - # (2, 3)
    - [    -0.534053542261207,     0.022990771262886,     0.012842788350390 ]
    - [     0.022990771262886,     0.070628961595067,     0.018443620087423 ]
    - [     0.012842788350390,     0.018443620087423,     0.066297172857888 ]
  - # (2, 4)
    - [     0.136043759162109,    -0.268250063789799,     0.002178919730251 ]
    - [    -0.268250063744356,     0.105209719243806,    -0.002057287222953 ]
    - [     0.002178919729069,    -0.002057287224337,    -0.033200175471332 ]
  - # (2, 5)
    - [     0.066004235800955,     0.057477632537147,    -0.017676342814128 ]
    - [     0.057477632557168,    -0.529428816513893,    -0.013879886097110 ]
    - [    -0.017676342811113,    -0.013879886114920,     0.066297172869561 ]
  - # (2, 6)
    - [     0.166382662568284,     0.295852083739678,     0.004345714519776 ]
    - [     0.295852083738491,     0.200389420436861,    -0.004103126437351 ]
    - [     0.004345714518945,    -0.004103126438494,    -0.112619637610672 ]
  - # (2, 7)
    - [     0.166382662577460,     0.295852083760742,     0.004345714519952 ]
    - [     0.295852083716182,     0.200389420421489,    -0.004103126437488 ]
    - [     0.004345714519689,    -0.004103126437898,    -0.112619637613322 ]
  - # (2, 8)
    - [     0.066004235800880,     0.057477632561205,    -0.017676342812658 ]
    - [     0.057477632560018,    -0.529428816558243,    -0.013879886097163 ]
    - [    -0.017676342813489,    -0.013879886098307,     0.066297172867724 ]
  - # (2, 9)
    - [     0.136043759145560,    -0.268250063764045,     0.002178919726475 ]
    - [    -0.268250063741707,     0.105209719238200,    -0.002057287225931 ]
    - [     0.002178919724851,    -0.002057287228489,    -0.033200175473429 ]
  - # (2, 10)
    - [     0.086740274907713,     0.011577932680047,    -0.005240569387861 ]
    - [     0.011577932681947,     0.043440243208488,    -0.024846277960502 ]
    - [    -0.005240569385694,    -0.024846277965957,     0.055515290307368 ]
  - # (2, 11)
    - [    -0.085783217744440,    -0.130360109688612,     0.210275903702545 ]
    - [    -0.130360109679901,    -0.039410262107513,     0.213757915639361 ]
    - [     0.210275903710000,     0.213757915667275,    -0.271933927947955 ]
  - # (2, 12)
    - [    -0.114302070707988,     0.120737176436055,    -0.194258446119667 ]
    - [     0.120737176415421,    -0.100423919607090,     0.183414477061115 ]
    - [    -0.194258446133305,     0.183414477103119,    -0.243257117224124 ]
  - # (2, 13)
    - [     0.062899492554578,     0.024432061321438,     0.024631117321393 ]
    - [     0.024432061322400,     0.025527454500867,     0.005111521509249 ]
    - [     0.024631117326339,     0.005111521506844,     0.021700057011182 ]
  - # (2, 14)
    - [    -0.090958831272384,     0.048580713125062,     0.093519286442879 ]
    - [     0.048580713116418,    -0.085374714625087,    -0.088298817165472 ]
    - [     0.093519286452290,    -0.088298817185640,    -0.129626761396579 ]
  - # (2, 15)
    - [    -0.024628003182013,    -0.126845362476818,    -0.201340570021413 ]
    - [    -0.126845362466483,    -0.100565476672230,    -0.222194457672865 ]
    - [    -0.201340570029592,    -0.222194457699158,    -0.271933927849734 ]
  - # (2, 16)
    - [    -0.087251422789221,    -0.057419750594771,    -0.006417833536748 ]
    - [    -0.057419750590045,    -0.093851543807725,     0.006059574824647 ]
    - [    -0.006417833551734,     0.006059574809283,     0.389156269438422 ]
  - # (2, 17)
    - [     0.022851390628939,     0.022130394073897,    -0.003689819063663 ]
    - [     0.022130394070379,     0.065575556430955,    -0.024883826644370 ]
    - [    -0.003689819061227,    -0.024883826650925,     0.021700057019489 ]
  - # (2, 18)
    - [     0.042256350840839,     0.009021327343580,     0.024504651736292 ]
    - [     0.009021327342433,     0.087924167280853,     0.006657562555581 ]
    - [     0.024504651737750,     0.006657562554514,     0.055515290302776 ]
  - # (2, 19)
    - [    -0.114302070707248,     0.120737176435725,    -0.194258446118974 ]
    - [     0.120737176415701,    -0.100423919606997,     0.183414477062430 ]
    - [    -0.194258446133312,     0.183414477103566,    -0.243257117223502 ]
  - # (2, 20)
    - [    -0.085783217743904,    -0.130360109688460,     0.210275903701073 ]
    - [    -0.130360109679675,    -0.039410262106783,     0.213757915640710 ]
    - [     0.210275903710334,     0.213757915667295,    -0.271933927947567 ]
  - # (2, 21)
    - [     0.086740274906437,     0.011577932680225,    -0.005240569387082 ]
    - [     0.011577932681441,     0.043440243207665,    -0.024846277963166 ]
    - [    -0.005240569386021,    -0.024846277966425,     0.055515290306358 ]
  - # (2, 22)
    - [     0.042256350840482,     0.009021327343736,     0.024504651735614 ]
    - [     0.009021327342335,     0.087924167280042,     0.006657562554978 ]
    - [     0.024504651737316,     0.006657562556332,     0.055515290302099 ]
  - # (2, 23)
    - [     0.022851390628659,     0.022130394072127,    -0.003689819062416 ]
    - [     0.022130394070067,     0.065575556429715,    -0.024883826642491 ]
    - [    -0.003689819061029,    -0.024883826646473,     0.021700057018066 ]
  - # (2, 24)
    - [    -0.087251422788435,    -0.057419750594851,    -0.006417833557418 ]
    - [    -0.057419750589478,    -0.093851543807468,     0.006059574802081 ]
    - [    -0.006417833540866,     0.006059574816600,     0.389156269438878 ]
  - # (2, 25)
    - [    -0.024628003194212,    -0.126845362491171,    -0.201340570037684 ]
    - [    -0.126845362478308,    -0.100565476684809,    -0.222194457687596 ]
    - [    -0.201340570039923,    -0.222194457713981,    -0.271933927875886 ]
  - # (2, 26)
    - [    -0.090958831271793,     0.048580713127216,     0.093519286442115 ]
    - [     0.048580713117005,    -0.085374714624855,    -0.088298817165756 ]
    - [     0.093519286451959,    -0.088298817185191,    -0.129626761394573 ]
  - # (2, 27)
    - [     0.062899492553827,     0.024432061321198,     0.024631117322365 ]
    - [     0.024432061320548,     0.025527454500040,     0.005111521507251 ]
    - [     0.024631117323450,     0.005111521505635,     0.021700057009799 ]
  - # (3, 1)
    - [    -0.534053542261262,     0.022990771265662,     0.012842788350794 ]
    - [     0.022990771238212,     0.070628961590324,     0.018443620086983 ]
    - [     0.012842788337123,     0.018443620089904,     0.066297172861926 ]
  - # (3, 2)
    - [    -0.534053542261207,     0.022990771262886,     0.012842788350390 ]
    - [     0.022990771262886,     0.070628961595067,     0.018443620087423 ]
    - [     0.012842788350390,     0.018443620087423,     0.066297172857888 ]
  - # (3, 3)
    - [     0.707597843007386,    -0.059849611999100,     0.112650398317799 ]
    - [    -0.059849611999100,     0.700718421358318,    -0.106361984911595 ]
    - [     0.112650398317799,    -0.106361984911595,     0.772780475417141 ]
  - # (3, 4)
    - [     0.166382662577460,     0.295852083760742,     0.004345714519952 ]
    - [     0.295852083716182,     0.200389420421489,    -0.004103126437488 ]
    - [     0.004345714519689,    -0.004103126437898,    -0.112619637613322 ]
  - # (3, 5)
    - [     0.136043759145560,    -0.268250063764045,     0.002178919726475 ]
    - [    -0.268250063741707,     0.105209719238200,    -0.002057287225931 ]
    - [     0.002178919724851,    -0.002057287228489,    -0.033200175473429 ]
  - # (3, 6)
    - [     0.066004235800880,     0.057477632561205,    -0.017676342812658 ]
    - [     0.057477632560018,    -0.529428816558243,    -0.013879886097163 ]
    - [    -0.017676342813489,    -0.013879886098307,     0.066297172867724 ]
  - # (3, 7)
    - [     0.136043759162109,    -0.268250063789799,     0.002178919730251 ]
    - [    -0.268250063744356,     0.105209719243806,    -0.002057287222953 ]
    - [     0.002178919729069,    -0.002057287224337,    -0.033200175471332 ]
  - # (3, 8)
    - [     0.166382662568284,     0.295852083739678,     0.004345714519776 ]
    - [     0.295852083738491,     0.200389420436861,    -0.004103126437351 ]
    - [     0.004345714518945,    -0.004103126438494,    -0.112619637610672 ]
  - # (3, 9)
    - [     0.066004235800955,     0.057477632537147,    -0.017676342814128 ]
    - [     0.057477632557168,    -0.529428816513893,    -0.013879886097110 ]
    - [    -0.017676342811113,    -0.013879886114920,     0.066297172869561 ]
  - # (3, 10)
    - [    -0.114302070707248,     0.120737176435725,    -0.194258446118974 ]
    - [     0.120737176415701,    -0.100423919606997,     0.183414477062430 ]
    - [    -0.194258446133312,     0.183414477103566,    -0.243257117223502 ]
  - # (3, 11)
    - [     0.086740274906437,     0.011577932680225,    -0.005240569387082 ]
    - [     0.011577932681441,     0.043440243207665,    -0.024846277963166 ]
    - [    -0.005240569386021,    -0.024846277966425,     0.055515290306358 ]
  - # (3, 12)
    - [    -0.085783217743904,    -0.130360109688460,     0.210275903701073 ]
    - [    -0.130360109679675,    -0.039410262106783,     0.213757915640710 ]
    - [     0.210275903710334,     0.213757915667295,    -0.271933927947567 ]
  - # (3, 13)
    - [    -0.024628003194212,    -0.126845362491171,    -0.201340570037684 ]
    - [    -0.126845362478308,    -0.100565476684809,    -0.222194457687596 ]
    - [    -0.201340570039923,    -0.222194457713981,    -0.271933927875886 ]
  - # (3, 14)
    - [     0.062899492553827,     0.024432061321198,     0.024631117322365 ]
    - [     0.024432061320548,     0.025527454500040,     0.005111521507251 ]
    - [     0.024631117323450,     0.005111521505635,     0.021700057009799 ]
  - # (3, 15)
    - [    -0.090958831271793,     0.048580713127216,     0.093519286442115 ]
    - [     0.048580713117005,    -0.085374714624855,    -0.088298817165756 ]
    - [     0.093519286451959,    -0.088298817185191,    -0.129626761394573 ]
  - # (3, 16)
    - [     0.042256350840482,     0.009021327343736,     0.024504651735614 ]
    - [     0.009021327342335,     0.087924167280042,     0.006657562554978 ]
    - [     0.024504651737316,     0.006657562556332,     0.055515290302099 ]
  - # (3, 17)
    - [    -0.087251422788435,    -0.057419750594851,    -0.006417833557418 ]
    - [    -0.057419750589478,    -0.093851543807468,     0.006059574802081 ]
    - [    -0.006417833540866,     0.006059574816600,     0.389156269438878 ]
  - # (3, 18)
    - [     0.022851390628659,     0.022130394072127,    -0.003689819062416 ]
    - [     0.022130394070067,     0.065575556429715,    -0.024883826642491 ]
    - [    -0.003689819061029,    -0.024883826646473,     0.021700057018066 ]
  - # (3, 19)
    - [     0.086740274907713,     0.011577932680047,    -0.005240569387861 ]
    - [     0.011577932681947,     0.043440243208488,    -0.024846277960502 ]
    - [    -0.005240569385694,    -0.024846277965957,     0.055515290307368 ]
  - # (3, 20)
    - [    -0.114302070707988,     0.120737176436055,    -0.194258446119667 ]
    - [     0.120737176415421,    -0.100423919607090,     0.183414477061115 ]
    - [    -0.194258446133305,     0.183414477103119,    -0.243257117224124 ]
  - # (3, 21)
    - [    -0.085783217744440,    -0.130360109688612,     0.210275903702545 ]
    - [    -0.130360109679901,    -0.039410262107513,     0.213757915639361 ]
    - [     0.210275903710000,     0.213757915667275,    -0.271933927947955 ]
  - # (3, 22)
    - [    -0.087251422789221,    -0.057419750594772,    -0.006417833536748 ]
    - [    -0.057419750590045,    -0.093851543807725,     0.006059574824647 ]
    - [    -0.006417833551734,     0.006059574809283,     0.389156269438422 ]
  - # (3, 23)
    - [     0.042256350840839,     0.009021327343580,     0.024504651736292 ]
    - [     0.009021327342433,     0.087924167280853,     0.006657562555581 ]
    - [     0.024504651737750,     0.006657562554514,     0.055515290302776 ]
  - # (3, 24)
    - [     0.022851390628939,     0.022130394073897,    -0.003689819063663 ]
    - [     0.022130394070379,     0.065575556430955,    -0.024883826644370 ]
    - [    -0.003689819061227,    -0.024883826650925,     0.021700057019489 ]
  - # (3, 25)
    - [     0.062899492554578,     0.024432061321438,     0.024631117321393 ]
    - [     0.024432061322400,     0.025527454500867,     0.005111521509249 ]
    - [     0.024631117326339,     0.005111521506844,     0.021700057011182 ]
  - # (3, 26)
    - [    -0.024628003182013,    -0.126845362476818,    -0.201340570021413 ]
    - [    -0.126845362466483,    -0.100565476672230,    -0.222194457672865 ]
    - [    -0.201340570029592,    -0.222194457699158,    -0.271933927849734 ]
  - # (3, 27)
    - [    -0.090958831272384,     0.048580713125062,     0.093519286442879 ]
    - [     0.048580713116418,    -0.085374714625087,    -0.088298817165472 ]
    - [     0.093519286452290,    -0.088298817185640,    -0.129626761396579 ]
  - # (4, 1)
    - [     0.066004235801455,     0.057477632534192,    -0.017676342814169 ]
    - [     0.057477632555648,    -0.529428816475934,    -0.013879886098482 ]
    - [    -0.017676342812532,    -0.013879886114093,     0.066297172867239 ]
  - # (4, 2)
    - [     0.136043759162109,    -0.268250063744356,     0.002178919729069 ]
    - [    -0.268250063789799,     0.105209719243806,    -0.002057287224337 ]
    - [     0.002178919730251,    -0.002057287222953,    -0.033200175471332 ]
  - # (4, 3)
    - [     0.166382662577460,     0.295852083716182,     0.004345714519689 ]
    - [     0.295852083760742,     0.200389420421489,    -0.004103126437898 ]
    - [     0.004345714519952,    -0.004103126437488,    -0.112619637613322 ]
  - # (4, 4)
    - [     0.707597843114605,    -0.059849611992835,     0.112650398328041 ]
    - [    -0.059849611992835,     0.700718421247556,    -0.106361984900806 ]
    - [     0.112650398328041,    -0.106361984900806,     0.772780475417145 ]
  - # (4, 5)
    - [    -0.534053542303735,     0.022990771262514,     0.012842788349008 ]
    - [     0.022990771241216,     0.070628961590795,     0.018443620086229 ]
    - [     0.012842788338835,     0.018443620089459,     0.066297172864251 ]
  - # (4, 6)
    - [    -0.534053542303250,     0.022990771261816,     0.012842788349190 ]
    - [     0.022990771264423,     0.070628961591940,     0.018443620087392 ]
    - [     0.012842788351195,     0.018443620085826,     0.066297172860592 ]
  - # (4, 7)
    - [     0.066004235803877,     0.057477632556893,    -0.017676342814427 ]
    - [     0.057477632556893,    -0.529428816473559,    -0.013879886097851 ]
    - [    -0.017676342814427,    -0.013879886097851,     0.066297172864976 ]
  - # (4, 8)
    - [     0.166382662580317,     0.295852083718141,     0.004345714519890 ]
    - [     0.295852083761514,     0.200389420423058,    -0.004103126437326 ]
    - [     0.004345714519322,    -0.004103126438059,    -0.112619637610670 ]
  - # (4, 9)
    - [     0.136043759152599,    -0.268250063740867,     0.002178919725627 ]
    - [    -0.268250063763973,     0.105209719229390,    -0.002057287226924 ]
    - [     0.002178919725186,    -0.002057287228098,    -0.033200175473428 ]
  - # (4, 10)