# Thermal properties / unit cell (natom)

unit:
  temperature:   K
  free_energy:   kJ/mol
  entropy:       J/K/mol
  heat_capacity: J/K/mol

natom: 1    
cutoff_frequency: 0.00000
num_modes: 151200
num_integrated_modes: 100372

zero_point_energy:       0.6320337

thermal_properties:
- temperature:         0.0000000
  free_energy:         0.6320337
  entropy:             0.0000000
  heat_capacity:       0.0000000
  energy:              0.6320337

- temperature:        10.0000000
  free_energy:         0.6284575
  entropy:             1.0442584
  heat_capacity:       1.9820869
  energy:              0.6389001

- temperature:        20.0000000
  free_energy:         0.6056968
  entropy:             3.7037736
  heat_capacity:       6.2964925
  energy:              0.6797722

- temperature:        30.0000000
  free_energy:         0.5523553
  entropy:             6.9873501
  heat_capacity:       9.8946326
  energy:              0.7619758

- temperature:        40.0000000
  free_energy:         0.4663593
  entropy:            10.1663388
  heat_capacity:      12.1219949
  energy:              0.8730129

- temperature:        50.0000000
  free_energy:         0.3501076
  entropy:            13.0274166
  heat_capacity:      13.4614715
  energy:              1.0014784

- temperature:        60.0000000
  free_energy:         0.2069060
  entropy:            15.5612989
  heat_capacity:      14.2976357
  energy:              1.1405839

- temperature:        70.0000000
  free_energy:         0.0398351
  entropy:            17.8091931
  heat_capacity:      14.8449038
  energy:              1.2864786

- temperature:        80.0000000
  free_energy:        -0.1484796
  entropy:            19.8173779
  heat_capacity:      15.2191393
  energy:              1.4369107

- temperature:        90.0000000
  free_energy:        -0.3558485
  entropy:            21.6261248
  heat_capacity:      15.4849114
  energy:              1.5905027

- temperature:       100.0000000
  free_energy:        -0.5804473
  entropy:            23.2682145
  heat_capacity:      15.6798000
  energy:              1.7463742

- temperature:       110.0000000
  free_energy:        -0.8207453
  entropy:            24.7698609
  heat_capacity:      15.8266403
  energy:              1.9039394

- temperature:       120.0000000
  free_energy:        -1.0754467
  entropy:            26.1520175
  heat_capacity:      15.9398637
  energy:              2.0627955

- temperature:       130.0000000
  free_energy:        -1.3434438
  entropy:            27.4315409
  heat_capacity:      16.0289138
  energy:              2.2226565

- temperature:       140.0000000
  free_energy:        -1.6237812
  entropy:            28.6221131
  heat_capacity:      16.1001625
  energy:              2.3833146

- temperature:       150.0000000
  free_energy:        -1.9156272
  entropy:            29.7349496
  heat_capacity:      16.1580269
  energy:              2.5446152

- temperature:       160.0000000
  free_energy:        -2.2182522
  entropy:            30.7793331
  heat_capacity:      16.2056424
  energy:              2.7064411

- temperature:       170.0000000
  free_energy:        -2.5310117
  entropy:            31.7630191
  heat_capacity:      16.2452819
  energy:              2.8687016

- temperature:       180.0000000
  free_energy:        -2.8533322
  entropy:            32.6925441
  heat_capacity:      16.2786244
  energy:              3.0313258

- temperature:       190.0000000
  free_energy:        -3.1847006
  entropy:            33.5734628
  heat_capacity:      16.3069311
  energy:              3.1942573

- temperature:       200.0000000
  free_energy:        -3.5246553
  entropy:            34.4105308
  heat_capacity:      16.3311636
  energy:              3.3574508

- temperature:       210.0000000
  free_energy:        -3.8727788
  entropy:            35.2078490
  heat_capacity:      16.3520654
  energy:              3.5208695

- temperature:       220.0000000
  free_energy:        -4.2286917
  entropy:            35.9689760
  heat_capacity:      16.3702182
  energy:              3.6844830

- temperature:       230.0000000
  free_energy:        -4.5920481
  entropy:            36.6970188
  heat_capacity:      16.3860825
  energy:              3.8482662

- temperature:       240.0000000
  free_energy:        -4.9625310
  entropy:            37.3947050
  heat_capacity:      16.4000264
  energy:              4.0121982

- temperature:       250.0000000
  free_energy:        -5.3398490
  entropy:            38.0644416
  heat_capacity:      16.4123471
  energy:              4.1762614

- temperature:       260.0000000
  free_energy:        -5.7237338
  entropy:            38.7083629
  heat_capacity:      16.4232866
  energy:              4.3404406

- temperature:       270.0000000
  free_energy:        -6.1139366
  entropy:            39.3283695
  heat_capacity:      16.4330434
  energy:              4.5047231

- temperature:       280.0000000
  free_energy:        -6.5102271
  entropy:            39.9261614
  heat_capacity:      16.4417818
  energy:              4.6690981

- temperature:       290.0000000
  free_energy:        -6.9123909
  entropy:            40.5032646
  heat_capacity:      16.4496385
  energy:              4.8335558

- temperature:       300.0000000
  free_energy:        -7.3202280
  entropy:            41.0610544
  heat_capacity:      16.4567280
  energy:              4.9980883

- temperature:       310.0000000
  free_energy:        -7.7335518
  entropy:            41.6007740
  heat_capacity:      16.4631470
  energy:              5.1626882

- temperature:       320.0000000
  free_energy:        -8.1521871
  entropy:            42.1235510
  heat_capacity:      16.4689772
  energy:              5.3273493

- temperature:       330.0000000
  free_energy:        -8.5759697
  entropy:            42.6304113
  heat_capacity:      16.4742885
  energy:              5.4920660

- temperature:       340.0000000
  free_energy:        -9.0047454
  entropy:            43.1222908
  heat_capacity:      16.4791405
  energy:              5.6568335

- temperature:       350.0000000
  free_energy:        -9.4383685
  entropy:            43.6000455
  heat_capacity:      16.4835847
  energy:              5.8216474

- temperature:       360.0000000
  free_energy:        -9.8767018
  entropy:            44.0644605
  heat_capacity:      16.4876655
  energy:              5.9865040

- temperature:       370.0000000
  free_energy:       -10.3196156
  entropy:            44.5162576
  heat_capacity:      16.4914213
  energy:              6.1513997

- temperature:       380.0000000
  free_energy:       -10.7669871
  entropy:            44.9561015
  heat_capacity:      16.4948859
  energy:              6.3163314

- temperature:       390.0000000
  free_energy:       -11.2186999
  entropy:            45.3846061
  heat_capacity:      16.4980884
  energy:              6.4812965

- temperature:       400.0000000
  free_energy:       -11.6746433
  entropy:            45.8023394
  heat_capacity:      16.5010547
  energy:              6.6462924

- temperature:       410.0000000
  free_energy:       -12.1347125
  entropy:            46.2098278
  heat_capacity:      16.5038074
  energy:              6.8113169

- temperature:       420.0000000
  free_energy:       -12.5988074
  entropy:            46.6075603
  heat_capacity:      16.5063665
  energy:              6.9763679

- temperature:       430.0000000
  free_energy:       -13.0668327
  entropy:            46.9959915
  heat_capacity:      16.5087497
  energy:              7.1414436

- temperature:       440.0000000
  free_energy:       -13.5386976
  entropy:            47.3755455
  heat_capacity:      16.5109728
  energy:              7.3065424

- temperature:       450.0000000
  free_energy:       -14.0143154
  entropy:            47.7466177
  heat_capacity:      16.5130498
  energy:              7.4716626

- temperature:       460.0000000
  free_energy:       -14.4936029
  entropy:            48.1095780
  heat_capacity:      16.5149932
  energy:              7.6368029

- temperature:       470.0000000
  free_energy:       -14.9764810
  entropy:            48.4647725
  heat_capacity:      16.5168142
  energy:              7.8019621

- temperature:       480.0000000
  free_energy:       -15.4628736
  entropy:            48.8125259
  heat_capacity:      16.5185230
  energy:              7.9671388

- temperature:       490.0000000
  free_energy:       -15.9527078
  entropy:            49.1531427
  heat_capacity:      16.5201284
  energy:              8.1323322

- temperature:       500.0000000
  free_energy:       -16.4459136
  entropy:            49.4869094
  heat_capacity:      16.5216387
  energy:              8.2975411

- temperature:       510.0000000
  free_energy:       -16.9424240
  entropy:            49.8140955
  heat_capacity:      16.5230613
  energy:              8.4627647

- temperature:       520.0000000
  free_energy:       -17.4421744
  entropy:            50.1349548
  heat_capacity:      16.5244027
  energy:              8.6280020

- temperature:       530.0000000
  free_energy:       -17.9451028
  entropy:            50.4497270
  heat_capacity:      16.5256691
  energy:              8.7932525

- temperature:       540.0000000
  free_energy:       -18.4511494
  entropy:            50.7586382
  heat_capacity:      16.5268660
  energy:              8.9585152

- temperature:       550.0000000
  free_energy:       -18.9602568
  entropy:            51.0619024
  heat_capacity:      16.5279983
  energy:              9.1237896

- temperature:       560.0000000
  free_energy:       -19.4723693
  entropy:            51.3597220
  heat_capacity:      16.5290706
  energy:              9.2890750

- temperature:       570.0000000
  free_energy:       -19.9874337
  entropy:            51.6522886
  heat_capacity:      16.5300871
  energy:              9.4543708

- temperature:       580.0000000
  free_energy:       -20.5053982
  entropy:            51.9397840
  heat_capacity:      16.5310515
  energy:              9.6196765

- temperature:       590.0000000
  free_energy:       -21.0262131
  entropy:            52.2223809
  heat_capacity:      16.5319674
  energy:              9.7849917

- temperature:       600.0000000
  free_energy:       -21.5498301
  entropy:            52.5002430
  heat_capacity:      16.5328380
  energy:              9.9503157

- temperature:       610.0000000
  free_energy:       -22.0762026
  entropy:            52.7735261
  heat_capacity:      16.5336662
  energy:             10.1156483

- temperature:       620.0000000
  free_energy:       -22.6052858
  entropy:            53.0423786
  heat_capacity:      16.5344547
  energy:             10.2809889

- temperature:       630.0000000
  free_energy:       -23.1370359
  entropy:            53.3069416
  heat_capacity:      16.5352060
  energy:             10.4463373

- temperature:       640.0000000
  free_energy:       -23.6714108
  entropy:            53.5673496
  heat_capacity:      16.5359224
  energy:             10.6116929

- temperature:       650.0000000
  free_energy:       -24.2083695
  entropy:            53.8237309
  heat_capacity:      16.5366061
  energy:             10.7770556

- temperature:       660.0000000
  free_energy:       -24.7478724
  entropy:            54.0762081
  heat_capacity:      16.5372589
  energy:             10.9424249

- temperature:       670.0000000
  free_energy:       -25.2898810
  entropy:            54.3248981
  heat_capacity:      16.5378828
  energy:             11.1078007

- temperature:       680.0000000
  free_energy:       -25.8343581
  entropy:            54.5699127
  heat_capacity:      16.5384794
  energy:             11.2731825

- temperature:       690.0000000
  free_energy:       -26.3812674
  entropy:            54.8113588
  heat_capacity:      16.5390503
  energy:             11.4385702

- temperature:       700.0000000
  free_energy:       -26.9305737
  entropy:            55.0493388
  heat_capacity:      16.5395969
  energy:             11.6039634

- temperature:       710.0000000
  free_energy:       -27.4822429
  entropy:            55.2839507
  heat_capacity:      16.5401207
  energy:             11.7693620

- temperature:       720.0000000
  free_energy:       -28.0362418
  entropy:            55.5152883
  heat_capacity:      16.5406227
  energy:             11.9347658

- temperature:       730.0000000
  free_energy:       -28.5925381
  entropy:            55.7434418
  heat_capacity:      16.5411043
  energy:             12.1001744

- temperature:       740.0000000
  free_energy:       -29.1511003
  entropy:            55.9684975
  heat_capacity:      16.5415666
  energy:             12.2655878

- temperature:       750.0000000
  free_energy:       -29.7118980
  entropy:            56.1905383
  heat_capacity:      16.5420105
  energy:             12.4310057

- temperature:       760.0000000
  free_energy:       -30.2749013
  entropy:            56.4096438
  heat_capacity:      16.5424370
  energy:             12.5964280

- temperature:       770.0000000
  free_energy:       -30.8400813
  entropy:            56.6258906
  heat_capacity:      16.5428470
  energy:             12.7618544

- temperature:       780.0000000
  free_energy:       -31.4074098
  entropy:            56.8393522
  heat_capacity:      16.5432413
  energy:             12.9272848

- temperature:       790.0000000
  free_energy:       -31.9768593
  entropy:            57.0500994
  heat_capacity:      16.5436208
  energy:             13.0927192

- temperature:       800.0000000
  free_energy:       -32.5484030
  entropy:            57.2582003
  heat_capacity:      16.5439862
  energy:             13.2581572

- temperature:       810.0000000
  free_energy:       -33.1220147
  entropy:            57.4637205
  heat_capacity:      16.5443381
  energy:             13.4235988

- temperature:       820.0000000
  free_energy:       -33.6976690
  entropy:            57.6667231
  heat_capacity:      16.5446773
  energy:             13.5890439

- temperature:       830.0000000
  free_energy:       -34.2753410
  entropy:            57.8672691
  heat_capacity:      16.5450042
  energy:             13.7544923

- temperature:       840.0000000
  free_energy:       -34.8550064
  entropy:            58.0654171
  heat_capacity:      16.5453196
  energy:             13.9199440

- temperature:       850.0000000
  free_energy:       -35.4366416
  entropy:            58.2612238
  heat_capacity:      16.5456239
  energy:             14.0853987

- temperature:       860.0000000
  free_energy:       -36.0202233
  entropy:            58.4547438
  heat_capacity:      16.5459177
  energy:             14.2508564

- temperature:       870.0000000
  free_energy:       -36.6057290
  entropy:            58.6460299
  heat_capacity:      16.5462014
  energy:             14.4163170

- temperature:       880.0000000
  free_energy:       -37.1931366
  entropy:            58.8351330
  heat_capacity:      16.5464755
  energy:             14.5817804

- temperature:       890.0000000
  free_energy:       -37.7824245
  entropy:            59.0221023
  heat_capacity:      16.5467404
  energy:             14.7472465

- temperature:       900.0000000
  free_energy:       -38.3735717
  entropy:            59.2069854
  heat_capacity:      16.5469966
  energy:             14.9127152

- temperature:       910.0000000
  free_energy:       -38.9665574
  entropy:            59.3898284
  heat_capacity:      16.5472443
  energy:             15.0781864

- temperature:       920.0000000
  free_energy:       -39.5613616
  entropy:            59.5706757
  heat_capacity:      16.5474841
  energy:             15.2436601

- temperature:       930.0000000
  free_energy:       -40.1579644
  entropy:            59.7495704
  heat_capacity:      16.5477161
  energy:             15.4091361

- temperature:       940.0000000
  free_energy:       -40.7563466
  entropy:            59.9265542
  heat_capacity:      16.5479408
  energy:             15.5746144

- temperature:       950.0000000
  free_energy:       -41.3564893
  entropy:            60.1016675
  heat_capacity:      16.5481584
  energy:             15.7400949

- temperature:       960.0000000
  free_energy:       -41.9583739
  entropy:            60.2749494
  heat_capacity:      16.5483693
  energy:             15.9055775

- temperature:       970.0000000
  free_energy:       -42.5619823
  entropy:            60.4464376
  heat_capacity:      16.5485736
  energy:             16.0710622

- temperature:       980.0000000
  free_energy:       -43.1672968
  entropy:            60.6161691
  heat_capacity:      16.5487718
  energy:             16.2365489

- temperature:       990.0000000
  free_energy:       -43.7742999
  entropy:            60.7841794
  heat_capacity:      16.5489640
  energy:             16.4020376

- temperature:      1000.0000000
  free_energy:       -44.3829747
  entropy:            60.9505030
  heat_capacity:      16.5491504
  energy:             16.5675282
