phonopy:
  version: "2.37.1"
  frequency_unit_conversion_factor: 15.633302
  symmetry_tolerance: 1.00000e-05

space_group:
  type: "P1"
  number: 1
  Hall_symbol: "P 1"

primitive_matrix:
- [  0.000000000000000, -1.000000000000000, -0.000000000000000 ]
- [  1.000000000000000,  0.000000000000000,  0.000000000000000 ]
- [  0.000000000000000,  0.000000000000000,  1.000000000000000 ]

supercell_matrix:
- [   2,   0,   0 ]
- [   0,   2,   0 ]
- [   0,   0,   2 ]

primitive_cell:
  lattice:
  - [    -1.515327083092191,     5.174595042367527,     0.000000000000000 ] # a
  - [    -6.433594958727535,     0.000000000000000,     0.000000000000000 ] # b
  - [    -3.099251975104715,    -0.898937096504145,     7.273635847507529 ] # c
  points:
  - symbol: Li # 1
    coordinates: [  0.548380421308416,  0.991448152687263,  0.481909058089983 ]
    mass: 6.940000
  - symbol: Li # 2
    coordinates: [  0.683996718946768,  0.340880796191791,  0.188148046755472 ]
    mass: 6.940000
  - symbol: Li # 3
    coordinates: [  0.678110317211867,  0.825453092931465,  0.208993810000275 ]
    mass: 6.940000
  - symbol: Li # 4
    coordinates: [  0.113846008395176,  0.409681655206363,  0.326316323337375 ]
    mass: 6.940000
  - symbol: Li # 5
    coordinates: [  0.822169545677985,  0.186782107119962,  0.913253069240805 ]
    mass: 6.940000
  - symbol: Li # 6
    coordinates: [  0.383722548038780,  0.619710645926379,  0.743887507601059 ]
    mass: 6.940000
  - symbol: Li # 7
    coordinates: [  0.972581618956681,  0.056566764545574,  0.624783980939664 ]
    mass: 6.940000
  - symbol: Li # 8
    coordinates: [  0.268408784084852,  0.769504551749400,  0.036156214864885 ]
    mass: 6.940000
  - symbol: Ga # 9
    coordinates: [  0.554670405670035,  0.456125520956456,  0.468109291480126 ]
    mass: 69.723000
  - symbol: Ga # 10
    coordinates: [  0.363579837034894,  0.166553675334072,  0.745662046711738 ]
    mass: 69.723000
  - symbol: Ga # 11
    coordinates: [  0.920715949958874,  0.547594138313943,  0.605918195280577 ]
    mass: 69.723000
  - symbol: Ga # 12
    coordinates: [  0.292727299478438,  0.253682701088824,  0.048343168058747 ]
    mass: 69.723000
  - symbol: Sn # 13
    coordinates: [  0.115803076716669,  0.908715919143418,  0.334883078712235 ]
    mass: 118.710000
  - symbol: Sn # 14
    coordinates: [  0.822806953988098,  0.694299868368090,  0.903881087178765 ]
    mass: 118.710000
  reciprocal_lattice: # without 2pi
  - [    -0.000000000000000,     0.193251837450544,     0.023883687511166 ] # a*
  - [    -0.155434093444668,    -0.045517280000490,    -0.071854929719983 ] # b*
  - [    -0.000000000000000,     0.000000000000000,     0.137482824403791 ] # c*

unit_cell:
  lattice:
  - [     6.433594958727535,     0.000000000000000,     0.000000000000000 ] # a
  - [    -1.515327083092191,     5.174595042367526,     0.000000000000000 ] # b
  - [    -3.099251975104714,    -0.898937096504145,     7.273635847507529 ] # c
  points:
  - symbol: Li # 1
    coordinates: [  0.008551847312737,  0.548380421308416,  0.481909058089983 ]
    mass: 6.940000
    reduced_to: 1
  - symbol: Li # 2
    coordinates: [  0.659119203808209,  0.683996718946768,  0.188148046755472 ]
    mass: 6.940000
    reduced_to: 2
  - symbol: Li # 3
    coordinates: [  0.174546907068535,  0.678110317211867,  0.208993810000275 ]
    mass: 6.940000
    reduced_to: 3
  - symbol: Li # 4
    coordinates: [  0.590318344793637,  0.113846008395176,  0.326316323337375 ]
    mass: 6.940000
    reduced_to: 4
  - symbol: Li # 5
    coordinates: [  0.813217892880038,  0.822169545677985,  0.913253069240805 ]
    mass: 6.940000
    reduced_to: 5
  - symbol: Li # 6
    coordinates: [  0.380289354073621,  0.383722548038780,  0.743887507601059 ]
    mass: 6.940000
    reduced_to: 6
  - symbol: Li # 7
    coordinates: [  0.943433235454426,  0.972581618956681,  0.624783980939664 ]
    mass: 6.940000
    reduced_to: 7
  - symbol: Li # 8
    coordinates: [  0.230495448250600,  0.268408784084852,  0.036156214864885 ]
    mass: 6.940000
    reduced_to: 8
  - symbol: Ga # 9
    coordinates: [  0.543874479043544,  0.554670405670035,  0.468109291480126 ]
    mass: 69.723000
    reduced_to: 9
  - symbol: Ga # 10
    coordinates: [  0.833446324665928,  0.363579837034894,  0.745662046711738 ]
    mass: 69.723000
    reduced_to: 10
  - symbol: Ga # 11
    coordinates: [  0.452405861686057,  0.920715949958875,  0.605918195280577 ]
    mass: 69.723000
    reduced_to: 11
  - symbol: Ga # 12
    coordinates: [  0.746317298911176,  0.292727299478438,  0.048343168058747 ]
    mass: 69.723000
    reduced_to: 12
  - symbol: Sn # 13
    coordinates: [  0.091284080856582,  0.115803076716669,  0.334883078712235 ]
    mass: 118.710000
    reduced_to: 13
  - symbol: Sn # 14
    coordinates: [  0.305700131631910,  0.822806953988098,  0.903881087178765 ]
    mass: 118.710000
    reduced_to: 14

supercell:
  lattice:
  - [    12.867189917455070,     0.000000000000000,     0.000000000000000 ] # a
  - [    -3.030654166184382,    10.349190084735053,     0.000000000000000 ] # b
  - [    -6.198503950209428,    -1.797874193008289,    14.547271695015057 ] # c
  points:
  - symbol: Li # 1
    coordinates: [  0.004275923656368,  0.274190210654208,  0.240954529044992 ]
    mass: 6.940000
    reduced_to: 1
  - symbol: Li # 2
    coordinates: [  0.504275923656368,  0.274190210654208,  0.240954529044992 ]
    mass: 6.940000
    reduced_to: 1
  - symbol: Li # 3
    coordinates: [  0.004275923656368,  0.774190210654208,  0.240954529044992 ]
    mass: 6.940000
    reduced_to: 1
  - symbol: Li # 4
    coordinates: [  0.504275923656368,  0.774190210654208,  0.240954529044992 ]
    mass: 6.940000
    reduced_to: 1
  - symbol: Li # 5
    coordinates: [  0.004275923656368,  0.274190210654208,  0.740954529044991 ]
    mass: 6.940000
    reduced_to: 1
  - symbol: Li # 6
    coordinates: [  0.504275923656368,  0.274190210654208,  0.740954529044991 ]
    mass: 6.940000
    reduced_to: 1
  - symbol: Li # 7
    coordinates: [  0.004275923656368,  0.774190210654208,  0.740954529044991 ]
    mass: 6.940000
    reduced_to: 1
  - symbol: Li # 8
    coordinates: [  0.504275923656368,  0.774190210654208,  0.740954529044991 ]
    mass: 6.940000
    reduced_to: 1
  - symbol: Li # 9
    coordinates: [  0.329559601904105,  0.341998359473384,  0.094074023377736 ]
    mass: 6.940000
    reduced_to: 9
  - symbol: Li # 10
    coordinates: [  0.829559601904105,  0.341998359473384,  0.094074023377736 ]
    mass: 6.940000
    reduced_to: 9
  - symbol: Li # 11
    coordinates: [  0.329559601904105,  0.841998359473384,  0.094074023377736 ]
    mass: 6.940000
    reduced_to: 9
  - symbol: Li # 12
    coordinates: [  0.829559601904105,  0.841998359473384,  0.094074023377736 ]
    mass: 6.940000
    reduced_to: 9
  - symbol: Li # 13
    coordinates: [  0.329559601904105,  0.341998359473384,  0.594074023377736 ]
    mass: 6.940000
    reduced_to: 9
  - symbol: Li # 14
    coordinates: [  0.829559601904105,  0.341998359473384,  0.594074023377736 ]
    mass: 6.940000
    reduced_to: 9
  - symbol: Li # 15
    coordinates: [  0.329559601904105,  0.841998359473384,  0.594074023377736 ]
    mass: 6.940000
    reduced_to: 9
  - symbol: Li # 16
    coordinates: [  0.829559601904105,  0.841998359473384,  0.594074023377736 ]
    mass: 6.940000
    reduced_to: 9
  - symbol: Li # 17
    coordinates: [  0.087273453534268,  0.339055158605934,  0.104496905000138 ]
    mass: 6.940000
    reduced_to: 17
  - symbol: Li # 18
    coordinates: [  0.587273453534268,  0.339055158605934,  0.104496905000138 ]
    mass: 6.940000
    reduced_to: 17
  - symbol: Li # 19
    coordinates: [  0.087273453534268,  0.839055158605934,  0.104496905000138 ]
    mass: 6.940000
    reduced_to: 17
  - symbol: Li # 20
    coordinates: [  0.587273453534268,  0.839055158605934,  0.104496905000138 ]
    mass: 6.940000
    reduced_to: 17
  - symbol: Li # 21
    coordinates: [  0.087273453534268,  0.339055158605934,  0.604496905000138 ]
    mass: 6.940000
    reduced_to: 17
  - symbol: Li # 22
    coordinates: [  0.587273453534268,  0.339055158605934,  0.604496905000138 ]
    mass: 6.940000
    reduced_to: 17
  - symbol: Li # 23
    coordinates: [  0.087273453534268,  0.839055158605934,  0.604496905000138 ]
    mass: 6.940000
    reduced_to: 17
  - symbol: Li # 24
    coordinates: [  0.587273453534268,  0.839055158605934,  0.604496905000138 ]
    mass: 6.940000
    reduced_to: 17
  - symbol: Li # 25
    coordinates: [  0.295159172396818,  0.056923004197588,  0.163158161668688 ]
    mass: 6.940000
    reduced_to: 25
  - symbol: Li # 26
    coordinates: [  0.795159172396818,  0.056923004197588,  0.163158161668688 ]
    mass: 6.940000
    reduced_to: 25
  - symbol: Li # 27
    coordinates: [  0.295159172396818,  0.556923004197588,  0.163158161668688 ]
    mass: 6.940000
    reduced_to: 25
  - symbol: Li # 28
    coordinates: [  0.795159172396818,  0.556923004197588,  0.163158161668688 ]
    mass: 6.940000
    reduced_to: 25
  - symbol: Li # 29
    coordinates: [  0.295159172396818,  0.056923004197588,  0.663158161668688 ]
    mass: 6.940000
    reduced_to: 25
  - symbol: Li # 30
    coordinates: [  0.795159172396818,  0.056923004197588,  0.663158161668688 ]
    mass: 6.940000
    reduced_to: 25
  - symbol: Li # 31
    coordinates: [  0.295159172396818,  0.556923004197588,  0.663158161668688 ]
    mass: 6.940000
    reduced_to: 25
  - symbol: Li # 32
    coordinates: [  0.795159172396818,  0.556923004197588,  0.663158161668688 ]
    mass: 6.940000
    reduced_to: 25
  - symbol: Li # 33
    coordinates: [  0.406608946440019,  0.411084772838992,  0.456626534620403 ]
    mass: 6.940000
    reduced_to: 33
  - symbol: Li # 34
    coordinates: [  0.906608946440019,  0.411084772838992,  0.456626534620403 ]
    mass: 6.940000
    reduced_to: 33
  - symbol: Li # 35
    coordinates: [  0.406608946440019,  0.911084772838992,  0.456626534620403 ]
    mass: 6.940000
    reduced_to: 33
  - symbol: Li # 36
    coordinates: [  0.906608946440019,  0.911084772838992,  0.456626534620403 ]
    mass: 6.940000
    reduced_to: 33
  - symbol: Li # 37
    coordinates: [  0.406608946440019,  0.411084772838992,  0.956626534620403 ]
    mass: 6.940000
    reduced_to: 33
  - symbol: Li # 38
    coordinates: [  0.906608946440019,  0.411084772838992,  0.956626534620403 ]
    mass: 6.940000
    reduced_to: 33
  - symbol: Li # 39
    coordinates: [  0.406608946440019,  0.911084772838992,  0.956626534620403 ]
    mass: 6.940000
    reduced_to: 33
  - symbol: Li # 40
    coordinates: [  0.906608946440019,  0.911084772838992,  0.956626534620403 ]
    mass: 6.940000
    reduced_to: 33
  - symbol: Li # 41
    coordinates: [  0.190144677036811,  0.191861274019390,  0.371943753800530 ]
    mass: 6.940000
    reduced_to: 41
  - symbol: Li # 42
    coordinates: [  0.690144677036811,  0.191861274019390,  0.371943753800530 ]
    mass: 6.940000
    reduced_to: 41
  - symbol: Li # 43
    coordinates: [  0.190144677036811,  0.691861274019390,  0.371943753800530 ]
    mass: 6.940000
    reduced_to: 41
  - symbol: Li # 44
    coordinates: [  0.690144677036811,  0.691861274019390,  0.371943753800530 ]
    mass: 6.940000
    reduced_to: 41
  - symbol: Li # 45
    coordinates: [  0.190144677036811,  0.191861274019390,  0.871943753800530 ]
    mass: 6.940000
    reduced_to: 41
  - symbol: Li # 46
    coordinates: [  0.690144677036811,  0.191861274019390,  0.871943753800530 ]
    mass: 6.940000
    reduced_to: 41
  - symbol: Li # 47
    coordinates: [  0.190144677036811,  0.691861274019390,  0.871943753800530 ]
    mass: 6.940000
    reduced_to: 41
  - symbol: Li # 48
    coordinates: [  0.690144677036811,  0.691861274019390,  0.871943753800530 ]
    mass: 6.940000
    reduced_to: 41
  - symbol: Li # 49
    coordinates: [  0.471716617727213,  0.486290809478341,  0.312391990469832 ]
    mass: 6.940000
    reduced_to: 49
  - symbol: Li # 50
    coordinates: [  0.971716617727213,  0.486290809478341,  0.312391990469832 ]
    mass: 6.940000
    reduced_to: 49
  - symbol: Li # 51
    coordinates: [  0.471716617727213,  0.986290809478341,  0.312391990469832 ]
    mass: 6.940000
    reduced_to: 49
  - symbol: Li # 52
    coordinates: [  0.971716617727213,  0.986290809478341,  0.312391990469832 ]
    mass: 6.940000
    reduced_to: 49
  - symbol: Li # 53
    coordinates: [  0.471716617727213,  0.486290809478341,  0.812391990469832 ]
    mass: 6.940000
    reduced_to: 49
  - symbol: Li # 54
    coordinates: [  0.971716617727213,  0.486290809478341,  0.812391990469832 ]
    mass: 6.940000
    reduced_to: 49
  - symbol: Li # 55
    coordinates: [  0.471716617727213,  0.986290809478341,  0.812391990469832 ]
    mass: 6.940000
    reduced_to: 49
  - symbol: Li # 56
    coordinates: [  0.971716617727213,  0.986290809478341,  0.812391990469832 ]
    mass: 6.940000
    reduced_to: 49
  - symbol: Li # 57
    coordinates: [  0.115247724125300,  0.134204392042426,  0.018078107432443 ]
    mass: 6.940000
    reduced_to: 57
  - symbol: Li # 58
    coordinates: [  0.615247724125300,  0.134204392042426,  0.018078107432443 ]
    mass: 6.940000
    reduced_to: 57
  - symbol: Li # 59
    coordinates: [  0.115247724125300,  0.634204392042426,  0.018078107432443 ]
    mass: 6.940000
    reduced_to: 57
  - symbol: Li # 60
    coordinates: [  0.615247724125300,  0.634204392042426,  0.018078107432443 ]
    mass: 6.940000
    reduced_to: 57
  - symbol: Li # 61
    coordinates: [  0.115247724125300,  0.134204392042426,  0.518078107432443 ]
    mass: 6.940000
    reduced_to: 57
  - symbol: Li # 62
    coordinates: [  0.615247724125300,  0.134204392042426,  0.518078107432443 ]
    mass: 6.940000
    reduced_to: 57
  - symbol: Li # 63
    coordinates: [  0.115247724125300,  0.634204392042426,  0.518078107432443 ]
    mass: 6.940000
    reduced_to: 57
  - symbol: Li # 64
    coordinates: [  0.615247724125300,  0.634204392042426,  0.518078107432443 ]
    mass: 6.940000
    reduced_to: 57
  - symbol: Ga # 65
    coordinates: [  0.271937239521772,  0.277335202835017,  0.234054645740063 ]
    mass: 69.723000
    reduced_to: 65
  - symbol: Ga # 66
    coordinates: [  0.771937239521772,  0.277335202835017,  0.234054645740063 ]
    mass: 69.723000
    reduced_to: 65
  - symbol: Ga # 67
    coordinates: [  0.271937239521772,  0.777335202835017,  0.234054645740063 ]
    mass: 69.723000
    reduced_to: 65
  - symbol: Ga # 68
    coordinates: [  0.771937239521772,  0.777335202835017,  0.234054645740063 ]
    mass: 69.723000
    reduced_to: 65
  - symbol: Ga # 69
    coordinates: [  0.271937239521772,  0.277335202835017,  0.734054645740063 ]
    mass: 69.723000
    reduced_to: 65
  - symbol: Ga # 70
    coordinates: [  0.771937239521772,  0.277335202835017,  0.734054645740063 ]
    mass: 69.723000
    reduced_to: 65
  - symbol: Ga # 71
    coordinates: [  0.271937239521772,  0.777335202835017,  0.734054645740063 ]
    mass: 69.723000
    reduced_to: 65
  - symbol: Ga # 72
    coordinates: [  0.771937239521772,  0.777335202835017,  0.734054645740063 ]
    mass: 69.723000
    reduced_to: 65
  - symbol: Ga # 73
    coordinates: [  0.416723162332964,  0.181789918517447,  0.372831023355869 ]
    mass: 69.723000
    reduced_to: 73
  - symbol: Ga # 74
    coordinates: [  0.916723162332964,  0.181789918517447,  0.372831023355869 ]
    mass: 69.723000
    reduced_to: 73
  - symbol: Ga # 75
    coordinates: [  0.416723162332964,  0.681789918517447,  0.372831023355869 ]
    mass: 69.723000
    reduced_to: 73
  - symbol: Ga # 76
    coordinates: [  0.916723162332964,  0.681789918517447,  0.372831023355869 ]
    mass: 69.723000
    reduced_to: 73
  - symbol: Ga # 77
    coordinates: [  0.416723162332964,  0.181789918517447,  0.872831023355869 ]
    mass: 69.723000
    reduced_to: 73
  - symbol: Ga # 78
    coordinates: [  0.916723162332964,  0.181789918517447,  0.872831023355869 ]
    mass: 69.723000
    reduced_to: 73
  - symbol: Ga # 79
    coordinates: [  0.416723162332964,  0.681789918517447,  0.872831023355869 ]
    mass: 69.723000
    reduced_to: 73
  - symbol: Ga # 80
    coordinates: [  0.916723162332964,  0.681789918517447,  0.872831023355869 ]
    mass: 69.723000
    reduced_to: 73
  - symbol: Ga # 81
    coordinates: [  0.226202930843029,  0.460357974979437,  0.302959097640288 ]
    mass: 69.723000
    reduced_to: 81
  - symbol: Ga # 82
    coordinates: [  0.726202930843029,  0.460357974979437,  0.302959097640288 ]
    mass: 69.723000
    reduced_to: 81
  - symbol: Ga # 83
    coordinates: [  0.226202930843029,  0.960357974979437,  0.302959097640288 ]
    mass: 69.723000
    reduced_to: 81
  - symbol: Ga # 84
    coordinates: [  0.726202930843029,  0.960357974979437,  0.302959097640288 ]
    mass: 69.723000
    reduced_to: 81
  - symbol: Ga # 85
    coordinates: [  0.226202930843029,  0.460357974979437,  0.802959097640288 ]
    mass: 69.723000
    reduced_to: 81
  - symbol: Ga # 86
    coordinates: [  0.726202930843029,  0.460357974979437,  0.802959097640288 ]
    mass: 69.723000
    reduced_to: 81
  - symbol: Ga # 87
    coordinates: [  0.226202930843029,  0.960357974979437,  0.802959097640288 ]
    mass: 69.723000
    reduced_to: 81
  - symbol: Ga # 88
    coordinates: [  0.726202930843029,  0.960357974979437,  0.802959097640288 ]
    mass: 69.723000
    reduced_to: 81
  - symbol: Ga # 89
    coordinates: [  0.373158649455588,  0.146363649739219,  0.024171584029374 ]
    mass: 69.723000
    reduced_to: 89
  - symbol: Ga # 90
    coordinates: [  0.873158649455588,  0.146363649739219,  0.024171584029374 ]
    mass: 69.723000
    reduced_to: 89
  - symbol: Ga # 91
    coordinates: [  0.373158649455588,  0.646363649739219,  0.024171584029374 ]
    mass: 69.723000
    reduced_to: 89
  - symbol: Ga # 92
    coordinates: [  0.873158649455588,  0.646363649739219,  0.024171584029374 ]
    mass: 69.723000
    reduced_to: 89
  - symbol: Ga # 93
    coordinates: [  0.373158649455588,  0.146363649739219,  0.524171584029374 ]
    mass: 69.723000
    reduced_to: 89
  - symbol: Ga # 94
    coordinates: [  0.873158649455588,  0.146363649739219,  0.524171584029374 ]
    mass: 69.723000
    reduced_to: 89
  - symbol: Ga # 95
    coordinates: [  0.373158649455588,  0.646363649739219,  0.524171584029374 ]
    mass: 69.723000
    reduced_to: 89
  - symbol: Ga # 96
    coordinates: [  0.873158649455588,  0.646363649739219,  0.524171584029374 ]
    mass: 69.723000
    reduced_to: 89
  - symbol: Sn # 97
    coordinates: [  0.045642040428291,  0.057901538358334,  0.167441539356118 ]
    mass: 118.710000
    reduced_to: 97
  - symbol: Sn # 98
    coordinates: [  0.545642040428291,  0.057901538358334,  0.167441539356118 ]
    mass: 118.710000
    reduced_to: 97
  - symbol: Sn # 99
    coordinates: [  0.045642040428291,  0.557901538358334,  0.167441539356118 ]
    mass: 118.710000
    reduced_to: 97
  - symbol: Sn # 100
    coordinates: [  0.545642040428291,  0.557901538358334,  0.167441539356118 ]
    mass: 118.710000
    reduced_to: 97
  - symbol: Sn # 101
    coordinates: [  0.045642040428291,  0.057901538358334,  0.667441539356118 ]
    mass: 118.710000
    reduced_to: 97
  - symbol: Sn # 102
    coordinates: [  0.545642040428291,  0.057901538358334,  0.667441539356118 ]
    mass: 118.710000
    reduced_to: 97
  - symbol: Sn # 103
    coordinates: [  0.045642040428291,  0.557901538358334,  0.667441539356118 ]
    mass: 118.710000
    reduced_to: 97
  - symbol: Sn # 104
    coordinates: [  0.545642040428291,  0.557901538358334,  0.667441539356118 ]
    mass: 118.710000
    reduced_to: 97
  - symbol: Sn # 105
    coordinates: [  0.152850065815955,  0.411403476994049,  0.451940543589383 ]
    mass: 118.710000
    reduced_to: 105
  - symbol: Sn # 106
    coordinates: [  0.652850065815955,  0.411403476994049,  0.451940543589383 ]
    mass: 118.710000
    reduced_to: 105
  - symbol: Sn # 107
    coordinates: [  0.152850065815955,  0.911403476994049,  0.451940543589383 ]
    mass: 118.710000
    reduced_to: 105
  - symbol: Sn # 108
    coordinates: [  0.652850065815955,  0.911403476994049,  0.451940543589383 ]
    mass: 118.710000
    reduced_to: 105
  - symbol: Sn # 109
    coordinates: [  0.152850065815955,  0.411403476994049,  0.951940543589383 ]
    mass: 118.710000
    reduced_to: 105
  - symbol: Sn # 110
    coordinates: [  0.652850065815955,  0.411403476994049,  0.951940543589383 ]
    mass: 118.710000
    reduced_to: 105
  - symbol: Sn # 111
    coordinates: [  0.152850065815955,  0.911403476994049,  0.951940543589383 ]
    mass: 118.710000
    reduced_to: 105
  - symbol: Sn # 112
    coordinates: [  0.652850065815955,  0.911403476994049,  0.951940543589383 ]
    mass: 118.710000
    reduced_to: 105

displacements:
- atom:    1
  displacement:
    [   0.0100000000000000,  0.0000000000000000,  0.0000000000000000 ]
  forces:
  - [  -0.1248852461576462, -0.0340839549899101, -0.0048533044755459 ]
  - [  -0.1034590378403664, -0.0351677536964417, -0.0068675093352795 ]
  - [  -0.1036354452371597, -0.0351283699274063, -0.0069514475762844 ]
  - [  -0.1035529375076294, -0.0351629294455051, -0.0069291815161705 ]
  - [  -0.1036611422896385, -0.0352159738540649, -0.0069299787282944 ]
  - [  -0.1036647260189056, -0.0352025069296360, -0.0069102384150028 ]
  - [  -0.1036606281995773, -0.0352011471986771, -0.0069180168211460 ]
  - [  -0.1036600917577744, -0.0352038219571114, -0.0069154538214207 ]
  - [   0.0595828630030155,  0.0014188438653946, -0.0021537104621530 ]
  - [   0.0616963356733322,  0.0000618174672127,  0.0004448909312487 ]
  - [   0.0596544221043587,  0.0014399886131287, -0.0022676913067698 ]
  - [   0.0597460493445396,  0.0014174729585648, -0.0022799372673035 ]
  - [   0.0596857629716396,  0.0014878809452057, -0.0022696512751281 ]
  - [   0.0597512498497963,  0.0014208331704140, -0.0022454014979303 ]
  - [   0.0597030557692051,  0.0014642924070358, -0.0022309701889753 ]
  - [   0.0597144328057766,  0.0014577433466911, -0.0022190017625690 ]
  - [   0.0088295061141253, -0.0720854625105858, -0.0257472507655621 ]
  - [   0.0065777730196714, -0.0734801962971687, -0.0225569345057011 ]
  - [   0.0065605477429926, -0.0733652710914612, -0.0222232677042484 ]
  - [   0.0065300785936415, -0.0737252980470657, -0.0224584471434355 ]
  - [   0.0065987491980195, -0.0736387819051743, -0.0224160738289356 ]
  - [   0.0066217761486769, -0.0735990554094315, -0.0224311538040638 ]
  - [   0.0066279899328947, -0.0736099854111671, -0.0224343370646238 ]
  - [   0.0066328262910247, -0.0736004859209061, -0.0224326197057962 ]
  - [  -0.0024996791034937,  0.0112714935094118,  0.0295082461088896 ]
  - [  -0.0008031912147999,  0.0134851289913058,  0.0304760374128819 ]
  - [  -0.0022036228328943,  0.0111696291714907,  0.0293339397758245 ]
  - [  -0.0022588148713112,  0.0114924442023039,  0.0293180383741856 ]
  - [  -0.0022339243441820,  0.0112763401120901,  0.0294188298285007 ]
  - [  -0.0021689757704735,  0.0113171217963099,  0.0293511133641005 ]
  - [  -0.0022111386060715,  0.0112794972956181,  0.0294050909578800 ]
  - [  -0.0022265557199717,  0.0112785296514630,  0.0294055324047804 ]
  - [   0.0367952734231949, -0.0263149458914995,  0.0084194689989090 ]
  - [   0.0368523783981800, -0.0264193881303072,  0.0085375346243382 ]
  - [   0.0367851033806801, -0.0263365991413593,  0.0085749123245478 ]
  - [   0.0367394685745239, -0.0263659916818142,  0.0085720326751471 ]
  - [   0.0367918759584427, -0.0263300333172083,  0.0085180625319481 ]
  - [   0.0369432047009468, -0.0263486243784428,  0.0085719060152769 ]
  - [   0.0367751866579056, -0.0263277199119329,  0.0084907598793507 ]
  - [   0.0367049053311348, -0.0262402202934027,  0.0085366424173117 ]
  - [   0.0644667893648148, -0.0290884077548981,  0.0032581798732281 ]
  - [   0.0626045912504196, -0.0276574268937111,  0.0011153742671013 ]
  - [   0.0627048909664154, -0.0276613086462021,  0.0010018050670624 ]
  - [   0.0625782161951065, -0.0276936702430248,  0.0010234564542770 ]
  - [   0.0625869929790497, -0.0276918746531010,  0.0010354444384575 ]
  - [   0.0625079721212387, -0.0276595428586006,  0.0009222440421581 ]
  - [   0.0625944733619690, -0.0276999082416296,  0.0010399967432022 ]
  - [   0.0626104176044464, -0.0277121178805828,  0.0010289698839188 ]
  - [  -0.1023322120308876, -0.0495481416583061, -0.0582611560821533 ]
  - [  -0.1002439707517624, -0.0526822581887245, -0.0598792135715485 ]
  - [  -0.1019869148731232, -0.0496412068605423, -0.0582899525761604 ]
  - [  -0.1018363609910011, -0.0496481060981750, -0.0579572990536690 ]
  - [  -0.1020369604229927, -0.0496094524860382, -0.0582897216081619 ]
  - [  -0.1020282804965973, -0.0496122837066650, -0.0582865849137306 ]
  - [  -0.1020609289407730, -0.0496012642979622, -0.0583010315895081 ]
  - [  -0.1020355150103569, -0.0496247373521328, -0.0582977160811424 ]
  - [  -0.0093418136239052,  0.0985929891467094, -0.0202716570347548 ]
  - [  -0.0094880647957325,  0.0983123332262039, -0.0204585716128349 ]
  - [  -0.0094149392098188,  0.0983224287629128, -0.0200954899191856 ]
  - [  -0.0093385241925716,  0.0983703434467316, -0.0201599448919296 ]
  - [  -0.0092818737030029,  0.0984379947185516, -0.0202722884714603 ]
  - [  -0.0093602165579796,  0.0983819738030434, -0.0201970376074314 ]
  - [  -0.0093273520469666,  0.0983413457870483, -0.0201629772782326 ]
  - [  -0.0093136094510555,  0.0983495488762856, -0.0201234444975853 ]
  - [   0.1849842220544815,  0.0525387078523636, -0.0583151616156101 ]
  - [   0.1870578974485397,  0.0518206246197224, -0.0574337281286716 ]
  - [   0.1851270198822021,  0.0525266118347645, -0.0582201443612576 ]
  - [   0.1853496432304382,  0.0526343397796154, -0.0582711622118950 ]
  - [   0.1853404939174652,  0.0525329746305943, -0.0582108348608017 ]
  - [   0.1853258013725281,  0.0525428280234337, -0.0582015588879585 ]
  - [   0.1853429824113846,  0.0525510609149933, -0.0581972450017929 ]
  - [   0.1853307336568832,  0.0525368526577950, -0.0582024566829205 ]
  - [  -0.0747705399990082, -0.0705136656761169, -0.0157718416303396 ]
  - [  -0.0720075741410255, -0.0677685886621475, -0.0193481408059597 ]
  - [  -0.0748837143182755, -0.0708222612738609, -0.0158787257969379 ]
  - [  -0.0747276172041893, -0.0703225731849670, -0.0156904887408018 ]
  - [  -0.0746999531984329, -0.0703775435686111, -0.0156872589141130 ]
  - [  -0.0747590065002441, -0.0703952908515930, -0.0155370142310858 ]
  - [  -0.0747428089380264, -0.0703978314995766, -0.0157442670315504 ]
  - [  -0.0747358947992325, -0.0703556090593338, -0.0157556906342506 ]
  - [   0.0421281680464745,  0.0389717072248459,  0.0583926811814308 ]
  - [   0.0386435836553574,  0.0342802256345749,  0.0559950210154057 ]
  - [   0.0387693531811237,  0.0343662276864052,  0.0562795288860798 ]
  - [   0.0386477187275887,  0.0344942286610603,  0.0561370514333248 ]
  - [   0.0384395644068718,  0.0344818793237209,  0.0561116673052311 ]
  - [   0.0384205505251884,  0.0344730950891972,  0.0561087056994438 ]
  - [   0.0384273603558540,  0.0344791263341904,  0.0560912713408470 ]
  - [   0.0384692177176476,  0.0344899669289589,  0.0561189539730549 ]
  - [  -0.0754017382860184,  0.1663283258676529, -0.0463384687900543 ]
  - [  -0.0748635604977608,  0.1664200127124786, -0.0466887354850769 ]
  - [  -0.0752578154206276,  0.1663300395011902, -0.0463237874209881 ]
  - [  -0.0753166228532791,  0.1662560552358627, -0.0462626516819000 ]
  - [  -0.0752851665019989,  0.1663005799055099, -0.0463788770139217 ]
  - [  -0.0755174905061722,  0.1662029922008514, -0.0458081066608429 ]
  - [  -0.0753839984536171,  0.1661448180675507, -0.0463891103863716 ]
  - [  -0.0753073692321777,  0.1662806421518326, -0.0462914891541004 ]
  - [   0.0036392575129867, -0.0965109094977379,  0.0512498691678047 ]
  - [   0.0006163369398564, -0.0911934524774551,  0.0536151155829430 ]
  - [   0.0008812360465527, -0.0907520651817322,  0.0532757304608822 ]
  - [   0.0003774268552661, -0.0913648828864098,  0.0535855367779732 ]
  - [   0.0003860520664603, -0.0913384333252907,  0.0536683760583401 ]
  - [   0.0003826306201518, -0.0913344025611877,  0.0536254160106182 ]
  - [   0.0003691262099892, -0.0913234353065491,  0.0536152385175228 ]
  - [   0.0004188835155219, -0.0913387909531593,  0.0536740124225616 ]
  - [  -0.0224891025573015,  0.0092276521027088,  0.0818331390619278 ]
  - [  -0.0225922465324402,  0.0096878185868263,  0.0816207155585289 ]
  - [  -0.0225041601806879,  0.0097397752106190,  0.0814976543188095 ]
  - [  -0.0225984118878841,  0.0097220800817013,  0.0815969854593277 ]
  - [  -0.0225511081516743,  0.0096775665879250,  0.0815920382738113 ]
  - [  -0.0226672142744064,  0.0097072795033455,  0.0815432071685791 ]
  - [  -0.0225581955164671,  0.0097337178885937,  0.0815992653369904 ]
  - [  -0.0225962568074465,  0.0097680911421776,  0.0817570686340332 ]
- atom:    1
  displacement:
    [  -0.0100000000000000,  0.0000000000000000,  0.0000000000000000 ]
  forces:
  - [  -0.0822606459259987, -0.0362996384501457, -0.0090029761195183 ]
  - [  -0.1038658916950226, -0.0352418571710587, -0.0069732591509819 ]
  - [  -0.1036867722868919, -0.0352779962122440, -0.0068874061107635 ]
  - [  -0.1037698313593864, -0.0352464914321899, -0.0069120712578297 ]
  - [  -0.1036611348390579, -0.0351920947432518, -0.0069112032651901 ]
  - [  -0.1036570295691490, -0.0352060608565807, -0.0069297403097153 ]
  - [  -0.1036623269319534, -0.0352059341967106, -0.0069221146404743 ]
  - [  -0.1036624610424042, -0.0352024175226688, -0.0069242753088474 ]
  - [   0.0598468221724033,  0.0015062093734741, -0.0023024668917060 ]
  - [   0.0577224567532539,  0.0028802305459976, -0.0049419933930039 ]
  - [   0.0597727708518505,  0.0014857202768326, -0.0021939575672150 ]
  - [   0.0596830882132053,  0.0015112534165382, -0.0021777767688036 ]
  - [   0.0597428046166897,  0.0014353767037392, -0.0021891184151173 ]
  - [   0.0596750676631927,  0.0015035346150398, -0.0022141626104712 ]
  - [   0.0597232207655907,  0.0014622882008553, -0.0022300239652395 ]
  - [   0.0597140043973923,  0.0014680549502373, -0.0022419495508075 ]