# Thermal properties / unit cell (natom)

unit:
  temperature:   K
  free_energy:   kJ/mol
  entropy:       J/K/mol
  heat_capacity: J/K/mol

natom: 14   
cutoff_frequency: 0.00000
num_modes: 201096
num_integrated_modes: 196848

zero_point_energy:      48.4609830

thermal_properties:
- temperature:         0.0000000
  free_energy:        48.4609830
  entropy:             0.0000000
  heat_capacity:       0.0000000
  energy:             48.4609830

- temperature:        10.0000000
  free_energy:        48.4484653
  entropy:             3.9660206
  heat_capacity:       8.6988246
  energy:             48.4881255

- temperature:        20.0000000
  free_energy:        48.3514022
  entropy:            16.6139807
  heat_capacity:      31.4252844
  energy:             48.6836818

- temperature:        30.0000000
  free_energy:        48.1007165
  entropy:            33.9934846
  heat_capacity:      55.7230390
  energy:             49.1205210

- temperature:        40.0000000
  free_energy:        47.6658168
  entropy:            53.1438870
  heat_capacity:      78.1507310
  energy:             49.7915722

- temperature:        50.0000000
  free_energy:        47.0361071
  entropy:            72.8382662
  heat_capacity:      98.9310004
  energy:             50.6780204

- temperature:        60.0000000
  free_energy:        46.2087250
  entropy:            92.6387273
  heat_capacity:     118.7495813
  energy:             51.7670487

- temperature:        70.0000000
  free_energy:        45.1835103
  entropy:           112.3876023
  heat_capacity:     137.8446195
  energy:             53.0506424

- temperature:        80.0000000
  free_energy:        43.9614423
  entropy:           131.9957285
  heat_capacity:     156.0843347
  energy:             54.5211006

- temperature:        90.0000000
  free_energy:        42.5443375
  entropy:           151.3813467
  heat_capacity:     173.2248903
  energy:             56.1686587

- temperature:       100.0000000
  free_energy:        40.9348250
  entropy:           170.4643842
  heat_capacity:     189.0683787
  energy:             57.9812634

- temperature:       110.0000000
  free_energy:        39.1362987
  entropy:           189.1732414
  heat_capacity:     203.5136369
  energy:             59.9453552

- temperature:       120.0000000
  free_energy:        37.1528014
  entropy:           207.4502622
  heat_capacity:     216.5500837
  energy:             62.0468329

- temperature:       130.0000000
  free_energy:        34.9888741
  entropy:           225.2535749
  heat_capacity:     228.2324056
  energy:             64.2718388

- temperature:       140.0000000
  free_energy:        32.6494001
  entropy:           242.5562744
  heat_capacity:     238.6545779
  energy:             66.6072785

- temperature:       150.0000000
  free_energy:        30.1394654
  entropy:           259.3442708
  heat_capacity:     247.9296028
  energy:             69.0411061

- temperature:       160.0000000
  free_energy:        27.4642439
  entropy:           275.6137337
  heat_capacity:     256.1757536
  energy:             71.5624413

- temperature:       170.0000000
  free_energy:        24.6289066
  entropy:           291.3686447
  heat_capacity:     263.5081445
  energy:             74.1615762

- temperature:       180.0000000
  free_energy:        21.6385544
  entropy:           306.6186824
  heat_capacity:     270.0340977
  energy:             76.8299172

- temperature:       190.0000000
  free_energy:        18.4981706
  entropy:           321.3775010
  heat_capacity:     275.8509980
  energy:             79.5598958

- temperature:       200.0000000
  free_energy:        15.2125877
  entropy:           335.6613830
  heat_capacity:     281.0456780
  energy:             82.3448643

- temperature:       210.0000000
  free_energy:        11.7864665
  entropy:           349.4882141
  heat_capacity:     285.6946805
  energy:             85.1789915

- temperature:       220.0000000
  free_energy:         8.2242845
  entropy:           362.8767212
  heat_capacity:     289.8649824
  energy:             88.0571632

- temperature:       230.0000000
  free_energy:         4.5303298
  entropy:           375.8459173
  heat_capacity:     293.6149235
  energy:             90.9748908

- temperature:       240.0000000
  free_energy:         0.7087008
  entropy:           388.4147055
  heat_capacity:     296.9951882
  energy:             93.9282301

- temperature:       250.0000000
  free_energy:        -3.2366914
  entropy:           400.6016038
  heat_capacity:     300.0497588
  energy:             96.9137096

- temperature:       260.0000000
  free_energy:        -7.3021182
  entropy:           412.4245601
  heat_capacity:     302.8167949
  energy:             99.9282674

- temperature:       270.0000000
  free_energy:       -11.4840271
  entropy:           423.9008333
  heat_capacity:     305.3294242
  energy:            102.9691979

- temperature:       280.0000000
  free_energy:       -15.7790344
  entropy:           435.0469236
  heat_capacity:     307.6164376
  energy:            106.0341043

- temperature:       290.0000000
  free_energy:       -20.1839174
  entropy:           445.8785375
  heat_capacity:     309.7028949
  energy:            109.1208585

- temperature:       300.0000000
  free_energy:       -24.6956066
  entropy:           456.4105780
  heat_capacity:     311.6106474
  energy:            112.2275668

- temperature:       310.0000000
  free_energy:       -29.3111775
  entropy:           466.6571521
  heat_capacity:     313.3587864
  energy:            115.3525397

- temperature:       320.0000000
  free_energy:       -34.0278426
  entropy:           476.6315907
  heat_capacity:     314.9640272
  energy:            118.4942664

- temperature:       330.0000000
  free_energy:       -38.8429442
  entropy:           486.3464762
  heat_capacity:     316.4410369
  energy:            121.6513930

- temperature:       340.0000000
  free_energy:       -43.7539466
  entropy:           495.8136749
  heat_capacity:     317.8027149
  energy:            124.8227029

- temperature:       350.0000000
  free_energy:       -48.7584294
  entropy:           505.0443723
  heat_capacity:     319.0604312
  energy:            128.0071009

- temperature:       360.0000000
  free_energy:       -53.8540809
  entropy:           514.0491097
  heat_capacity:     320.2242313
  energy:            131.2035986

- temperature:       370.0000000
  free_energy:       -59.0386916
  entropy:           522.8378211
  heat_capacity:     321.3030100
  energy:            134.4113022

- temperature:       380.0000000
  free_energy:       -64.3101485
  entropy:           531.4198692
  heat_capacity:     322.3046615
  energy:            137.6294018

- temperature:       390.0000000
  free_energy:       -69.6664296
  entropy:           539.8040805
  heat_capacity:     323.2362072
  energy:            140.8571618

- temperature:       400.0000000
  free_energy:       -75.1055985
  entropy:           547.9987791
  heat_capacity:     324.1039058
  energy:            144.0939132

- temperature:       410.0000000
  free_energy:       -80.6257997
  entropy:           556.0118183
  heat_capacity:     324.9133480
  energy:            147.3390458

- temperature:       420.0000000
  free_energy:       -86.2252541
  entropy:           563.8506113
  heat_capacity:     325.6695385
  energy:            150.5920027

- temperature:       430.0000000
  free_energy:       -91.9022545
  entropy:           571.5221595
  heat_capacity:     326.3769661
  energy:            153.8522741

- temperature:       440.0000000
  free_energy:       -97.6551619
  entropy:           579.0330791
  heat_capacity:     327.0396652
  energy:            157.1193930

- temperature:       450.0000000
  free_energy:      -103.4824015
  entropy:           586.3896266
  heat_capacity:     327.6612688
  energy:            160.3929305

- temperature:       460.0000000
  free_energy:      -109.3824596
  entropy:           593.5977215
  heat_capacity:     328.2450543
  energy:            163.6724923

- temperature:       470.0000000
  free_energy:      -115.3538798
  entropy:           600.6629685
  heat_capacity:     328.7939842
  energy:            166.9577154

- temperature:       480.0000000
  free_energy:      -121.3952605
  entropy:           607.5906777
  heat_capacity:     329.3107405
  energy:            170.2482648

- temperature:       490.0000000
  free_energy:      -127.5052517
  entropy:           614.3858833
  heat_capacity:     329.7977561
  energy:            173.5438311

- temperature:       500.0000000
  free_energy:      -133.6825525
  entropy:           621.0533612
  heat_capacity:     330.2572413
  energy:            176.8441282

- temperature:       510.0000000
  free_energy:      -139.9259083
  entropy:           627.5976455
  heat_capacity:     330.6912073
  energy:            180.1488909

- temperature:       520.0000000
  free_energy:      -146.2341091
  entropy:           634.0230432
  heat_capacity:     331.1014875
  energy:            183.4578734

- temperature:       530.0000000
  free_energy:      -152.6059866
  entropy:           640.3336487
  heat_capacity:     331.4897553
  energy:            186.7708473

- temperature:       540.0000000
  free_energy:      -159.0404124
  entropy:           646.5333568
  heat_capacity:     331.8575407
  energy:            190.0876002

- temperature:       550.0000000
  free_energy:      -165.5362964
  entropy:           652.6258744
  heat_capacity:     332.2062446
  energy:            193.4079345

- temperature:       560.0000000
  free_energy:      -172.0925844
  entropy:           658.6147325
  heat_capacity:     332.5371512
  energy:            196.7316658

- temperature:       570.0000000
  free_energy:      -178.7082568
  entropy:           664.5032963
  heat_capacity:     332.8514398
  energy:            200.0586221

- temperature:       580.0000000
  free_energy:      -185.3823267
  entropy:           670.2947751
  heat_capacity:     333.1501943
  energy:            203.3886428

- temperature:       590.0000000
  free_energy:      -192.1138389
  entropy:           675.9922313
  heat_capacity:     333.4344127
  energy:            206.7215776

- temperature:       600.0000000
  free_energy:      -198.9018677
  entropy:           681.5985890
  heat_capacity:     333.7050148
  energy:            210.0572857

- temperature:       610.0000000
  free_energy:      -205.7455163
  entropy:           687.1166420
  heat_capacity:     333.9628494
  energy:            213.3956353

- temperature:       620.0000000
  free_energy:      -212.6439151
  entropy:           692.5490611
  heat_capacity:     334.2087007
  energy:            216.7365027

- temperature:       630.0000000
  free_energy:      -219.5962206
  entropy:           697.8984007
  heat_capacity:     334.4432941
  energy:            220.0797718

- temperature:       640.0000000
  free_energy:      -226.6016144
  entropy:           703.1671058
  heat_capacity:     334.6673014
  energy:            223.4253333

- temperature:       650.0000000
  free_energy:      -233.6593018
  entropy:           708.3575176
  heat_capacity:     334.8813455
  energy:            226.7730846

- temperature:       660.0000000
  free_energy:      -240.7685112
  entropy:           713.4718791
  heat_capacity:     335.0860043
  energy:            230.1229290

- temperature:       670.0000000
  free_energy:      -247.9284930
  entropy:           718.5123407
  heat_capacity:     335.2818149
  energy:            233.4747752

- temperature:       680.0000000
  free_energy:      -255.1385186
  entropy:           723.4809648
  heat_capacity:     335.4692766
  energy:            236.8285374

- temperature:       690.0000000
  free_energy:      -262.3978795
  entropy:           728.3797304
  heat_capacity:     335.6488543
  energy:            240.1841345

- temperature:       700.0000000
  free_energy:      -269.7058867
  entropy:           733.2105377
  heat_capacity:     335.8209812
  energy:            243.5414897

- temperature:       710.0000000
  free_energy:      -277.0618698
  entropy:           737.9752119
  heat_capacity:     335.9860613
  energy:            246.9005306

- temperature:       720.0000000
  free_energy:      -284.4651763
  entropy:           742.6755070
  heat_capacity:     336.1444719
  energy:            250.2611887

- temperature:       730.0000000
  free_energy:      -291.9151710
  entropy:           747.3131096
  heat_capacity:     336.2965652
  energy:            253.6233990

- temperature:       740.0000000
  free_energy:      -299.4112350
  entropy:           751.8896419
  heat_capacity:     336.4426711
  energy:            256.9871000

- temperature:       750.0000000
  free_energy:      -306.9527655
  entropy:           756.4066653
  heat_capacity:     336.5830978
  energy:            260.3522335

- temperature:       760.0000000
  free_energy:      -314.5391749
  entropy:           760.8656828
  heat_capacity:     336.7181344
  energy:            263.7187440

- temperature:       770.0000000
  free_energy:      -322.1698906
  entropy:           765.2681425
  heat_capacity:     336.8480519
  energy:            267.0865791

- temperature:       780.0000000
  free_energy:      -329.8443539
  entropy:           769.6154394
  heat_capacity:     336.9731044
  energy:            270.4556889

- temperature:       790.0000000
  free_energy:      -337.5620200
  entropy:           773.9089187
  heat_capacity:     337.0935307
  energy:            273.8260258

- temperature:       800.0000000
  free_energy:      -345.3223572
  entropy:           778.1498775
  heat_capacity:     337.2095550
  energy:            277.1975448

- temperature:       810.0000000
  free_energy:      -353.1248467
  entropy:           782.3395674
  heat_capacity:     337.3213884
  energy:            280.5702029

- temperature:       820.0000000
  free_energy:      -360.9689817
  entropy:           786.4791963
  heat_capacity:     337.4292293
  energy:            283.9439593

- temperature:       830.0000000
  free_energy:      -368.8542676
  entropy:           790.5699306
  heat_capacity:     337.5332647
  energy:            287.3187748

- temperature:       840.0000000
  free_energy:      -376.7802211
  entropy:           794.6128971
  heat_capacity:     337.6336708
  energy:            290.6946125

- temperature:       850.0000000
  free_energy:      -384.7463699
  entropy:           798.6091843
  heat_capacity:     337.7306137
  energy:            294.0714367

- temperature:       860.0000000
  free_energy:      -392.7522527
  entropy:           802.5598446
  heat_capacity:     337.8242502
  energy:            297.4492137

- temperature:       870.0000000
  free_energy:      -400.7974181
  entropy:           806.4658958
  heat_capacity:     337.9147284
  energy:            300.8279112

- temperature:       880.0000000
  free_energy:      -408.8814252
  entropy:           810.3283221
  heat_capacity:     338.0021882
  energy:            304.2074982

- temperature:       890.0000000
  free_energy:      -417.0038424
  entropy:           814.1480760
  heat_capacity:     338.0867619
  energy:            307.5879453

- temperature:       900.0000000
  free_energy:      -425.1642475
  entropy:           817.9260798
  heat_capacity:     338.1685745
  energy:            310.9692243

- temperature:       910.0000000
  free_energy:      -433.3622278
  entropy:           821.6632261
  heat_capacity:     338.2477445
  energy:            314.3513080

- temperature:       920.0000000
  free_energy:      -441.5973788
  entropy:           825.3603799
  heat_capacity:     338.3243842
  energy:            317.7341707

- temperature:       930.0000000
  free_energy:      -449.8693048
  entropy:           829.0183790
  heat_capacity:     338.3985997
  energy:            321.1177876

- temperature:       940.0000000
  free_energy:      -458.1776185
  entropy:           832.6380356
  heat_capacity:     338.4704920
  energy:            324.5021350

- temperature:       950.0000000
  free_energy:      -466.5219404
  entropy:           836.2201373
  heat_capacity:     338.5401566
  energy:            327.8871900

- temperature:       960.0000000
  free_energy:      -474.9018986
  entropy:           839.7654475
  heat_capacity:     338.6076844
  energy:            331.2729310

- temperature:       970.0000000
  free_energy:      -483.3171292
  entropy:           843.2747072
  heat_capacity:     338.6731615
  energy:            334.6593369

- temperature:       980.0000000
  free_energy:      -491.7672750
  entropy:           846.7486354
  heat_capacity:     338.7366700
  energy:            338.0463876

- temperature:       990.0000000
  free_energy:      -500.2519864
  entropy:           850.1879297
  heat_capacity:     338.7982876
  energy:            341.4340640

- temperature:      1000.0000000
  free_energy:      -508.7709204
  entropy:           853.5932678
  heat_capacity:     338.8580885
  energy:            344.8223473
