phonopy:
  version: "2.37.1"
  frequency_unit_conversion_factor: 15.633302
  symmetry_tolerance: 1.00000e-05

space_group:
  type: "P4/mbm"
  number: 127
  Hall_symbol: "-P 4 2ab"

primitive_matrix:
- [  1.000000000000000,  0.000000000000000, -0.000000000000000 ]
- [  0.000000000000000,  1.000000000000000, -0.000000000000000 ]
- [  0.000000000000000,  0.000000000000000,  1.000000000000000 ]

supercell_matrix:
- [   1,   0,   0 ]
- [   0,   1,   0 ]
- [   0,   0,   4 ]

primitive_cell:
  lattice:
  - [    10.405249857813207,     0.000000000000000,     0.000000000000000 ] # a
  - [     0.000000411039496,    10.405249265258451,     0.000000000000000 ] # b
  - [     0.000000021873641,     0.000000008828824,     3.155864809062659 ] # c
  points:
  - symbol: Li # 1
    coordinates: [  0.174321432876842,  0.674321432201100,  0.500000001183262 ]
    mass: 6.940000
  - symbol: Li # 2
    coordinates: [  0.825678566644814,  0.325678567510052,  0.500000000715161 ]
    mass: 6.940000
  - symbol: Li # 3
    coordinates: [  0.325678567427664,  0.174321432847371,  0.500000001085158 ]
    mass: 6.940000
  - symbol: Li # 4
    coordinates: [  0.674321434164287,  0.825678567266451,  0.500000001452380 ]
    mass: 6.940000
  - symbol: Sn # 5
    coordinates: [  0.294874595133407,  0.430503742722319,  0.999999999609194 ]
    mass: 118.710000
  - symbol: Sn # 6
    coordinates: [  0.705125404487447,  0.569496256697859,  0.999999999677568 ]
    mass: 118.710000
  - symbol: Sn # 7
    coordinates: [  0.569496256085933,  0.294874594839607,  0.999999999766937 ]
    mass: 118.710000
  - symbol: Sn # 8
    coordinates: [  0.430503743340712,  0.705125404569702,  0.999999999522516 ]
    mass: 118.710000
  - symbol: Sn # 9
    coordinates: [  0.205125404969094,  0.930503744108009,  0.999999999507095 ]
    mass: 118.710000
  - symbol: Sn # 10
    coordinates: [  0.794874596148616,  0.069496253080331,  0.999999999643252 ]
    mass: 118.710000
  - symbol: Sn # 11
    coordinates: [  0.930503740694891,  0.794874598037901,  0.999999999518541 ]
    mass: 118.710000
  - symbol: Sn # 12
    coordinates: [  0.069496257136006,  0.205125403622738,  0.999999999648571 ]
    mass: 118.710000
  - symbol: Sn # 13
    coordinates: [  0.000000001255975,  0.500000001100504,  0.999999999275546 ]
    mass: 118.710000
  - symbol: Sn # 14
    coordinates: [  0.499999999652634,  0.000000001387736,  0.999999999378860 ]
    mass: 118.710000
  reciprocal_lattice: # without 2pi
  - [     0.096105332756532,    -0.000000003796458,    -0.000000000666116 ] # a*
  - [     0.000000000000000,     0.096105338229508,    -0.000000000268864 ] # b*
  - [     0.000000000000000,     0.000000000000000,     0.316870354245946 ] # c*

unit_cell:
  lattice:
  - [    10.405249857813205,     0.000000000000000,     0.000000000000000 ] # a
  - [     0.000000411039496,    10.405249265258449,     0.000000000000000 ] # b
  - [     0.000000021873641,     0.000000008828824,     3.155864809062659 ] # c
  points:
  - symbol: Li # 1
    coordinates: [  0.174321432876842,  0.674321432201100,  0.500000001183262 ]
    mass: 6.940000
    reduced_to: 1
  - symbol: Li # 2
    coordinates: [  0.825678566644815,  0.325678567510052,  0.500000000715161 ]
    mass: 6.940000
    reduced_to: 2
  - symbol: Li # 3
    coordinates: [  0.325678567427664,  0.174321432847371,  0.500000001085158 ]
    mass: 6.940000
    reduced_to: 3
  - symbol: Li # 4
    coordinates: [  0.674321434164287,  0.825678567266452,  0.500000001452380 ]
    mass: 6.940000
    reduced_to: 4
  - symbol: Sn # 5
    coordinates: [  0.294874595133407,  0.430503742722319,  0.999999999609194 ]
    mass: 118.710000
    reduced_to: 5
  - symbol: Sn # 6
    coordinates: [  0.705125404487447,  0.569496256697859,  0.999999999677568 ]
    mass: 118.710000
    reduced_to: 6
  - symbol: Sn # 7
    coordinates: [  0.569496256085933,  0.294874594839607,  0.999999999766937 ]
    mass: 118.710000
    reduced_to: 7
  - symbol: Sn # 8
    coordinates: [  0.430503743340712,  0.705125404569703,  0.999999999522516 ]
    mass: 118.710000
    reduced_to: 8
  - symbol: Sn # 9
    coordinates: [  0.205125404969094,  0.930503744108010,  0.999999999507095 ]
    mass: 118.710000
    reduced_to: 9
  - symbol: Sn # 10
    coordinates: [  0.794874596148616,  0.069496253080331,  0.999999999643252 ]
    mass: 118.710000
    reduced_to: 10
  - symbol: Sn # 11
    coordinates: [  0.930503740694892,  0.794874598037901,  0.999999999518541 ]
    mass: 118.710000
    reduced_to: 11
  - symbol: Sn # 12
    coordinates: [  0.069496257136006,  0.205125403622738,  0.999999999648571 ]
    mass: 118.710000
    reduced_to: 12
  - symbol: Sn # 13
    coordinates: [  0.000000001255975,  0.500000001100504,  0.999999999275546 ]
    mass: 118.710000
    reduced_to: 13
  - symbol: Sn # 14
    coordinates: [  0.499999999652634,  0.000000001387736,  0.999999999378860 ]
    mass: 118.710000
    reduced_to: 14

supercell:
  lattice:
  - [    10.405249857813205,     0.000000000000000,     0.000000000000000 ] # a
  - [     0.000000411039496,    10.405249265258449,     0.000000000000000 ] # b
  - [     0.000000087494565,     0.000000035315296,    12.623459236250637 ] # c
  points:
  - symbol: Li # 1
    coordinates: [  0.174321432876842,  0.674321432201100,  0.125000000295816 ]
    mass: 6.940000
    reduced_to: 1
  - symbol: Li # 2
    coordinates: [  0.174321432876842,  0.674321432201100,  0.375000000295816 ]
    mass: 6.940000
    reduced_to: 1
  - symbol: Li # 3
    coordinates: [  0.174321432876842,  0.674321432201100,  0.625000000295816 ]
    mass: 6.940000
    reduced_to: 1
  - symbol: Li # 4
    coordinates: [  0.174321432876842,  0.674321432201100,  0.875000000295816 ]
    mass: 6.940000
    reduced_to: 1
  - symbol: Li # 5
    coordinates: [  0.825678566644815,  0.325678567510052,  0.125000000178790 ]
    mass: 6.940000
    reduced_to: 5
  - symbol: Li # 6
    coordinates: [  0.825678566644815,  0.325678567510052,  0.375000000178790 ]
    mass: 6.940000
    reduced_to: 5
  - symbol: Li # 7
    coordinates: [  0.825678566644815,  0.325678567510052,  0.625000000178790 ]
    mass: 6.940000
    reduced_to: 5
  - symbol: Li # 8
    coordinates: [  0.825678566644815,  0.325678567510052,  0.875000000178790 ]
    mass: 6.940000
    reduced_to: 5
  - symbol: Li # 9
    coordinates: [  0.325678567427664,  0.174321432847371,  0.125000000271289 ]
    mass: 6.940000
    reduced_to: 9
  - symbol: Li # 10
    coordinates: [  0.325678567427664,  0.174321432847371,  0.375000000271289 ]
    mass: 6.940000
    reduced_to: 9
  - symbol: Li # 11
    coordinates: [  0.325678567427664,  0.174321432847371,  0.625000000271289 ]
    mass: 6.940000
    reduced_to: 9
  - symbol: Li # 12
    coordinates: [  0.325678567427664,  0.174321432847371,  0.875000000271289 ]
    mass: 6.940000
    reduced_to: 9
  - symbol: Li # 13
    coordinates: [  0.674321434164287,  0.825678567266452,  0.125000000363095 ]
    mass: 6.940000
    reduced_to: 13
  - symbol: Li # 14
    coordinates: [  0.674321434164287,  0.825678567266452,  0.375000000363095 ]
    mass: 6.940000
    reduced_to: 13
  - symbol: Li # 15
    coordinates: [  0.674321434164287,  0.825678567266452,  0.625000000363095 ]
    mass: 6.940000
    reduced_to: 13
  - symbol: Li # 16
    coordinates: [  0.674321434164287,  0.825678567266452,  0.875000000363095 ]
    mass: 6.940000
    reduced_to: 13
  - symbol: Sn # 17
    coordinates: [  0.294874595133407,  0.430503742722319,  0.249999999902298 ]
    mass: 118.710000
    reduced_to: 17
  - symbol: Sn # 18
    coordinates: [  0.294874595133407,  0.430503742722319,  0.499999999902298 ]
    mass: 118.710000
    reduced_to: 17
  - symbol: Sn # 19
    coordinates: [  0.294874595133407,  0.430503742722319,  0.749999999902298 ]
    mass: 118.710000
    reduced_to: 17
  - symbol: Sn # 20
    coordinates: [  0.294874595133407,  0.430503742722319,  0.999999999902298 ]
    mass: 118.710000
    reduced_to: 17
  - symbol: Sn # 21
    coordinates: [  0.705125404487447,  0.569496256697859,  0.249999999919392 ]
    mass: 118.710000
    reduced_to: 21
  - symbol: Sn # 22
    coordinates: [  0.705125404487447,  0.569496256697859,  0.499999999919392 ]
    mass: 118.710000
    reduced_to: 21
  - symbol: Sn # 23
    coordinates: [  0.705125404487447,  0.569496256697859,  0.749999999919392 ]
    mass: 118.710000
    reduced_to: 21
  - symbol: Sn # 24
    coordinates: [  0.705125404487447,  0.569496256697859,  0.999999999919392 ]
    mass: 118.710000
    reduced_to: 21
  - symbol: Sn # 25
    coordinates: [  0.569496256085933,  0.294874594839607,  0.249999999941734 ]
    mass: 118.710000
    reduced_to: 25
  - symbol: Sn # 26
    coordinates: [  0.569496256085933,  0.294874594839607,  0.499999999941734 ]
    mass: 118.710000
    reduced_to: 25
  - symbol: Sn # 27
    coordinates: [  0.569496256085933,  0.294874594839607,  0.749999999941734 ]
    mass: 118.710000
    reduced_to: 25
  - symbol: Sn # 28
    coordinates: [  0.569496256085933,  0.294874594839607,  0.999999999941734 ]
    mass: 118.710000
    reduced_to: 25
  - symbol: Sn # 29
    coordinates: [  0.430503743340712,  0.705125404569703,  0.249999999880629 ]
    mass: 118.710000
    reduced_to: 29
  - symbol: Sn # 30
    coordinates: [  0.430503743340712,  0.705125404569703,  0.499999999880629 ]
    mass: 118.710000
    reduced_to: 29
  - symbol: Sn # 31
    coordinates: [  0.430503743340712,  0.705125404569703,  0.749999999880629 ]
    mass: 118.710000
    reduced_to: 29
  - symbol: Sn # 32
    coordinates: [  0.430503743340712,  0.705125404569703,  0.999999999880629 ]
    mass: 118.710000
    reduced_to: 29
  - symbol: Sn # 33
    coordinates: [  0.205125404969094,  0.930503744108010,  0.249999999876774 ]
    mass: 118.710000
    reduced_to: 33
  - symbol: Sn # 34
    coordinates: [  0.205125404969094,  0.930503744108010,  0.499999999876774 ]
    mass: 118.710000
    reduced_to: 33
  - symbol: Sn # 35
    coordinates: [  0.205125404969094,  0.930503744108010,  0.749999999876774 ]
    mass: 118.710000
    reduced_to: 33
  - symbol: Sn # 36
    coordinates: [  0.205125404969094,  0.930503744108010,  0.999999999876774 ]
    mass: 118.710000
    reduced_to: 33
  - symbol: Sn # 37
    coordinates: [  0.794874596148616,  0.069496253080331,  0.249999999910813 ]
    mass: 118.710000
    reduced_to: 37
  - symbol: Sn # 38
    coordinates: [  0.794874596148616,  0.069496253080331,  0.499999999910813 ]
    mass: 118.710000
    reduced_to: 37
  - symbol: Sn # 39
    coordinates: [  0.794874596148616,  0.069496253080331,  0.749999999910813 ]
    mass: 118.710000
    reduced_to: 37
  - symbol: Sn # 40
    coordinates: [  0.794874596148616,  0.069496253080331,  0.999999999910813 ]
    mass: 118.710000
    reduced_to: 37
  - symbol: Sn # 41
    coordinates: [  0.930503740694892,  0.794874598037901,  0.249999999879635 ]
    mass: 118.710000
    reduced_to: 41
  - symbol: Sn # 42
    coordinates: [  0.930503740694892,  0.794874598037901,  0.499999999879635 ]
    mass: 118.710000
    reduced_to: 41
  - symbol: Sn # 43
    coordinates: [  0.930503740694892,  0.794874598037901,  0.749999999879635 ]
    mass: 118.710000
    reduced_to: 41
  - symbol: Sn # 44
    coordinates: [  0.930503740694892,  0.794874598037901,  0.999999999879635 ]
    mass: 118.710000
    reduced_to: 41
  - symbol: Sn # 45
    coordinates: [  0.069496257136006,  0.205125403622738,  0.249999999912143 ]
    mass: 118.710000
    reduced_to: 45
  - symbol: Sn # 46
    coordinates: [  0.069496257136006,  0.205125403622738,  0.499999999912143 ]
    mass: 118.710000
    reduced_to: 45
  - symbol: Sn # 47
    coordinates: [  0.069496257136006,  0.205125403622738,  0.749999999912143 ]
    mass: 118.710000
    reduced_to: 45
  - symbol: Sn # 48
    coordinates: [  0.069496257136006,  0.205125403622738,  0.999999999912143 ]
    mass: 118.710000
    reduced_to: 45
  - symbol: Sn # 49
    coordinates: [  0.000000001255975,  0.500000001100504,  0.249999999818887 ]
    mass: 118.710000
    reduced_to: 49
  - symbol: Sn # 50
    coordinates: [  0.000000001255975,  0.500000001100504,  0.499999999818887 ]
    mass: 118.710000
    reduced_to: 49
  - symbol: Sn # 51
    coordinates: [  0.000000001255975,  0.500000001100504,  0.749999999818887 ]
    mass: 118.710000
    reduced_to: 49
  - symbol: Sn # 52
    coordinates: [  0.000000001255975,  0.500000001100504,  0.999999999818887 ]
    mass: 118.710000
    reduced_to: 49
  - symbol: Sn # 53
    coordinates: [  0.499999999652634,  0.000000001387736,  0.249999999844715 ]
    mass: 118.710000
    reduced_to: 53
  - symbol: Sn # 54
    coordinates: [  0.499999999652634,  0.000000001387736,  0.499999999844715 ]
    mass: 118.710000
    reduced_to: 53
  - symbol: Sn # 55
    coordinates: [  0.499999999652634,  0.000000001387736,  0.749999999844715 ]
    mass: 118.710000
    reduced_to: 53
  - symbol: Sn # 56
    coordinates: [  0.499999999652634,  0.000000001387736,  0.999999999844715 ]
    mass: 118.710000
    reduced_to: 53

displacements:
- atom:    1
  displacement:
    [   0.0063605176673281,  0.0000000000215875,  0.0077164638924580 ]
  forces:
  - [   0.0020532291382551,  0.0095232827588916, -0.0121562173590064 ]
  - [   0.0124156130477786,  0.0126906195655465,  0.0017553160432726 ]
  - [   0.0126806963235140,  0.0128051880747080, -0.0009419533889741 ]
  - [   0.0122949983924627,  0.0125645659863949,  0.0018164240755141 ]
  - [  -0.0128231532871723, -0.0130135249346495,  0.0001463647931814 ]
  - [  -0.0126495985314250, -0.0127843860536814,  0.0001096185296774 ]
  - [  -0.0127761680632830, -0.0127653218805790, -0.0000290283933282 ]
  - [  -0.0134179722517729, -0.0135524114593863, -0.0005239387974143 ]
  - [  -0.0127995442599058,  0.0128195155411959,  0.0001418264582753 ]
  - [  -0.0129453800618649,  0.0127819748595357, -0.0002484619617462 ]
  - [  -0.0127828028053045,  0.0127748902887106, -0.0000080317258835 ]
  - [  -0.0126899052411318,  0.0127309486269951, -0.0000319704413414 ]
  - [   0.0125351184979081, -0.0128186671063304,  0.0001386236399412 ]
  - [   0.0123798968270421, -0.0128863491117954, -0.0001633865758777 ]
  - [   0.0128637980669737, -0.0127747859805822, -0.0000079032033682 ]
  - [   0.0123517559841275, -0.0126291224732995, -0.0001110592857003 ]
  - [   0.0082435496151447,  0.0306761208921671,  0.0008968678303063 ]
  - [   0.0075442176312208,  0.0324838310480118, -0.0000084358034655 ]
  - [   0.0075282463803887,  0.0325835756957531, -0.0000809861812741 ]
  - [   0.0072532407939434,  0.0329116247594357,  0.0004045852692798 ]
  - [  -0.0081906095147133, -0.0323566719889641, -0.0000364613952115 ]
  - [  -0.0075021078810096, -0.0325433909893036,  0.0001074000610970 ]
  - [  -0.0075217885896564, -0.0326024144887924, -0.0000182231306098 ]
  - [  -0.0080754589289427, -0.0323891937732697, -0.0001154824858531 ]
  - [  -0.0325711742043495,  0.0075269099324942, -0.0000362085411325 ]
  - [  -0.0325708054006100,  0.0075811538845301,  0.0000187149271369 ]
  - [  -0.0325201898813248,  0.0075375186279416,  0.0000142611679621 ]
  - [  -0.0327259674668312,  0.0076681599020958, -0.0000387335312553 ]
  - [   0.0379906147718430, -0.0066160205751657,  0.0024104535114020 ]
  - [   0.0326474346220493, -0.0075886696577072,  0.0002806238480844 ]
  - [   0.0324728786945343, -0.0075405137613416, -0.0001121913664974 ]
  - [   0.0337183065712452, -0.0074064880609512, -0.0001314001128776 ]
  - [  -0.0072337351739407,  0.0350374169647694,  0.0013638964155689 ]
  - [  -0.0075856223702431,  0.0326535180211067,  0.0001419565523975 ]
  - [  -0.0075369318947196,  0.0324808545410633,  0.0000254779006355 ]
  - [  -0.0079983472824097,  0.0308604128658772,  0.0008690209360793 ]
  - [   0.0074832485988736, -0.0325357951223850, -0.0000212543527596 ]
  - [   0.0075726918876171, -0.0325861908495426, -0.0000259705702774 ]
  - [   0.0075287269428372, -0.0325355753302574,  0.0000571960699745 ]
  - [   0.0076208058744669, -0.0326883606612682, -0.0000515106949024 ]
  - [   0.0330261029303074,  0.0076053366065025,  0.0001188513124362 ]
  - [   0.0325126834213734,  0.0075385998934507, -0.0000664525432512 ]
  - [   0.0326090380549431,  0.0075228605419397, -0.0000250340672210 ]
  - [   0.0351740457117558,  0.0066452361643314,  0.0011417327914387 ]
  - [  -0.0326336435973644, -0.0075761172920465, -0.0000684394035488 ]
  - [  -0.0325398072600365, -0.0075268791988492,  0.0000352172646672 ]
  - [  -0.0325996428728104, -0.0075470861047506,  0.0000530648394488 ]
  - [  -0.0326539017260075, -0.0074627902358770, -0.0000829424243420 ]
  - [   0.0000683138205204,  0.0000189932179637, -0.0000045299530029 ]
  - [  -0.0000602857362537, -0.0000587332178839, -0.0000078557059169 ]
  - [   0.0000276530590781,  0.0000285783316940,  0.0003047026693821 ]
  - [   0.0048656994476914,  0.0048070382326841,  0.0028476798906922 ]
  - [   0.0000899780134205,  0.0000822837173473, -0.0000319672399200 ]
  - [  -0.0000312827760354, -0.0000283540721284, -0.0000406324979849 ]
  - [   0.0000365408341167,  0.0000391189969378, -0.0000031515955925 ]
  - [  -0.0001532874885015, -0.0001663092261879,  0.0000299218809232 ]
- atom:    1
  displacement:
    [  -0.0063605176673281, -0.0000000000215875, -0.0077164638924580 ]
  forces:
  - [   0.0235218740999699,  0.0161096863448620,  0.0121683124452829 ]
  - [   0.0131691601127386,  0.0128988828510046, -0.0017101259436458 ]
  - [   0.0129097290337086,  0.0127860596403480,  0.0009420714341104 ]
  - [   0.0133010009303689,  0.0130251897498965, -0.0018574022687972 ]
  - [  -0.0127675496041775, -0.0125753032043576, -0.0001429533585906 ]
  - [  -0.0129416976124048, -0.0128059033304453, -0.0001111738383770 ]
  - [  -0.0128136873245239, -0.0128247849643230,  0.0000301310792565 ]
  - [  -0.0121650304645300, -0.0120288841426373,  0.0005289027467370 ]
  - [  -0.0127948503941298,  0.0127745699137449, -0.0001406408846378 ]
  - [  -0.0126482676714659,  0.0128164375200868,  0.0002398658543825 ]
  - [  -0.0128089617937803,  0.0128159876912832,  0.0000080605968833 ]
  - [  -0.0129052754491568,  0.0128600355237722,  0.0000341339036822 ]
  - [   0.0130598852410913, -0.0127739505842328, -0.0001436267048120 ]
  - [   0.0131972189992666, -0.0127120204269886,  0.0001527480781078 ]
  - [   0.0127277066931129, -0.0128158554434776,  0.0000079059973359 ]
  - [   0.0132637508213520, -0.0129672568291426,  0.0001274971291423 ]
  - [   0.0068799033761024,  0.0344002693891525, -0.0008779399795458 ]
  - [   0.0075684990733862,  0.0326360575854778,  0.0000109385582618 ]
  - [   0.0075832037255168,  0.0325387865304947,  0.0000808017211966 ]
  - [   0.0078572370111942,  0.0322304330766201, -0.0003958093584515 ]
  - [  -0.0069376546889544, -0.0327593311667442,  0.0000377037795261 ]
  - [  -0.0076118726283312, -0.0325783528387547, -0.0001046564429998 ]
  - [  -0.0075908601284027, -0.0325192883610725,  0.0000177652109414 ]
  - [  -0.0070606525987387, -0.0327322483062744,  0.0001121400273405 ]
  - [  -0.0325514152646065,  0.0075827930122614,  0.0000357010867447 ]
  - [  -0.0325487107038498,  0.0075314668938518, -0.0000188490957953 ]
  - [  -0.0325992666184902,  0.0075744427740574, -0.0000135363661684 ]
  - [  -0.0323920398950577,  0.0074489843100309,  0.0000383401638828 ]
  - [   0.0273362156003714, -0.0084759034216404, -0.0023114036303014 ]
  - [   0.0324750430881977, -0.0075243022292852, -0.0002755678724498 ]
  - [   0.0326450951397419, -0.0075723342597485,  0.0001097498461604 ]
  - [   0.0313817560672760, -0.0077126994729042,  0.0001393712445861 ]
  - [  -0.0078945141285658,  0.0301211923360825, -0.0013518487103283 ]
  - [  -0.0075259115546942,  0.0324673987925053, -0.0001429292024113 ]
  - [  -0.0075738141313195,  0.0326393879950047, -0.0000238961656578 ]
  - [  -0.0071061588823795,  0.0342596881091595, -0.0008646980859339 ]
  - [   0.0076264012604952, -0.0325867757201195,  0.0000231459271163 ]
  - [   0.0075389603152871, -0.0325334630906582,  0.0000254352344200 ]
  - [   0.0075825182721019, -0.0325841754674911, -0.0000592956203036 ]
  - [   0.0074891559779644, -0.0324250943958759,  0.0000527070369571 ]
  - [   0.0321103632450104,  0.0075025670230389, -0.0001255643437617 ]
  - [   0.0326081514358521,  0.0075766872614622,  0.0000689039006829 ]
  - [   0.0325079709291458,  0.0075934864580631,  0.0000201113871299 ]
  - [   0.0298527795821428,  0.0085112862288952, -0.0011889669112861 ]
  - [  -0.0324945300817490, -0.0075407586991787,  0.0000695511116646 ]
  - [  -0.0325809828937054, -0.0075847599655390, -0.0000342530547641 ]
  - [  -0.0325223542749882, -0.0075640454888344, -0.0000536618172191 ]
  - [  -0.0324542820453644, -0.0076650911942124,  0.0000810758210719 ]
  - [  -0.0000356119999196,  0.0000074476702139, -0.0000146301463246 ]
  - [   0.0000633583986200,  0.0000548653188162,  0.0000072680413723 ]
  - [  -0.0000259233984252, -0.0000352243077941, -0.0003150664269924 ]
  - [  -0.0049742422997952, -0.0049409382045269, -0.0029370589181781 ]
  - [  -0.0000843014422571, -0.0000754092761781,  0.0000325606670231 ]
  - [   0.0000316047371598,  0.0000279204250546,  0.0000397677649744 ]
  - [  -0.0000354064541170, -0.0000391857611248,  0.0000025885528885 ]
  - [   0.0001573014014866,  0.0001613255735720, -0.0000297061633319 ]
- atom:   17
  displacement:
    [   0.0063605176673281,  0.0000000000215875,  0.0077164638924580 ]
  forces:
  - [   0.0132713615894318,  0.0117444954812527,  0.0010359692387283 ]
  - [   0.0126879205927253,  0.0129920681938529,  0.0002414458431304 ]
  - [   0.0127330198884010,  0.0127960909157991, -0.0000541468616575 ]
  - [   0.0128197260200977,  0.0127414502203465, -0.0000372827053070 ]
  - [  -0.0134078981354833, -0.0127595392987132, -0.0000251624733210 ]
  - [  -0.0133146168664098, -0.0127450916916132, -0.0001260200515389 ]
  - [  -0.0126754706725478, -0.0127880293875933,  0.0000527137890458 ]
  - [  -0.0128260031342506, -0.0127655239775777,  0.0000354284420609 ]
  - [  -0.0131513560190797,  0.0137723591178656,  0.0007918113842607 ]
  - [  -0.0125578586012125,  0.0107334265485406,  0.0014359392225742 ]
  - [  -0.0127298953011632,  0.0125695746392012,  0.0000603720545769 ]
  - [  -0.0128729976713657,  0.0130414338782430,  0.0001069055870175 ]
  - [   0.0128124151378870, -0.0128378979861736, -0.0000946251675487 ]
  - [   0.0127756223082542, -0.0128344167023897,  0.0000196155160666 ]
  - [   0.0128416772931814, -0.0127956951037049, -0.0000020023435354 ]
  - [   0.0127403317019343, -0.0128017682582140,  0.0000351341441274 ]
  - [  -0.0046731168404222,  0.0346373841166496, -0.0162600614130497 ]
  - [   0.0076152393594384,  0.0323841832578182,  0.0043069561943412 ]
  - [   0.0076061002910137,  0.0325548052787781,  0.0029374030418694 ]
  - [   0.0077089965343475,  0.0326534286141396,  0.0039663705974817 ]
  - [  -0.0059005636721849, -0.0328686535358429,  0.0000662005040795 ]
  - [  -0.0079393517225981, -0.0326009504497051, -0.0001611362677068 ]
  - [  -0.0075564133003354, -0.0325674749910831, -0.0000229582074098 ]
  - [  -0.0075589641928673, -0.0325264632701874,  0.0001540239900351 ]
  - [  -0.0290131866931915,  0.0074409553781152,  0.0001358112203889 ]
  - [  -0.0322241187095642,  0.0070783477276564,  0.0008005355484784 ]
  - [  -0.0325565636157990,  0.0075605995953083, -0.0002397055504844 ]
  - [  -0.0324363932013512,  0.0076583372429013, -0.0001429269905202 ]
  - [   0.0333083122968674, -0.0074552949517965,  0.0001398124295520 ]
  - [   0.0328291319310665, -0.0067987143993378,  0.0005647062207572 ]
  - [   0.0325468778610229, -0.0075602252036333, -0.0002406357671134 ]
  - [   0.0324447862803936, -0.0079484209418297,  0.0000898617727216 ]
  - [  -0.0081209912896156,  0.0331011004745960,  0.0000297360238619 ]
  - [  -0.0073245353996754,  0.0325674675405025, -0.0000432800734416 ]
  - [  -0.0075698392465711,  0.0325659029185772, -0.0000288333976641 ]
  - [  -0.0074508599936962,  0.0325886458158493, -0.0001450419076718 ]
  - [   0.0086620245128870, -0.0332570038735867,  0.0000430249492638 ]
  - [   0.0074192201718688, -0.0325218066573143, -0.0000349576002918 ]
  - [   0.0075762849301100, -0.0325567312538624, -0.0000015253317542 ]
  - [   0.0073416372761130, -0.0325128808617592,  0.0000274476478808 ]
  - [   0.0325974933803082,  0.0066532175987959, -0.0000233642640524 ]
  - [   0.0325864180922508,  0.0076320543885231,  0.0000354321091436 ]
  - [   0.0325717404484749,  0.0075524430721998,  0.0000103808124550 ]
  - [   0.0324066318571568,  0.0077746352180839, -0.0000803664879641 ]
  - [  -0.0317585207521915, -0.0059119509533048,  0.0002433116897009 ]
  - [  -0.0327213518321514, -0.0077381907030940,  0.0000851436052471 ]
  - [  -0.0325649790465832, -0.0075393430888653, -0.0002030236646533 ]
  - [  -0.0322684943675995, -0.0077027184888721,  0.0001105659757741 ]
  - [   0.0046607023105025, -0.0007817111909389,  0.0000211456790566 ]
  - [  -0.0000639357022010,  0.0001179959508590, -0.0000351648777723 ]
  - [   0.0000073118621913, -0.0000119258766063, -0.0002875067293644 ]
  - [   0.0006626877002418, -0.0000535900180694,  0.0008141249418259 ]
  - [  -0.0000106958759716,  0.0002485399018042,  0.0000546696246602 ]
  - [  -0.0001003035722533,  0.0002379637007834, -0.0001430942211300 ]
  - [  -0.0000053584517445,  0.0000016694975784, -0.0000117318122648 ]
  - [   0.0001209633483086, -0.0001586222060723, -0.0000074482522905 ]
- atom:   17
  displacement:
    [  -0.0063605176673281, -0.0000000000215875, -0.0077164638924580 ]
  forces:
  - [   0.0122996754944324,  0.0138918804004788, -0.0010623026173562 ]
  - [   0.0128986090421677,  0.0126084014773369, -0.0002355217002332 ]
  - [   0.0128588788211346,  0.0127956066280603,  0.0000495035201311 ]
  - [   0.0127730416134000,  0.0128501653671265,  0.0000402266159654 ]
  - [  -0.0121806776151061, -0.0128272389993072,  0.0000280756503344 ]
  - [  -0.0122736981138587, -0.0128442402929068,  0.0001226104795933 ]
  - [  -0.0129152452573180, -0.0128030814230442, -0.0000522993505001 ]
  - [  -0.0127647286280990, -0.0128257973119617, -0.0000354936346412 ]
  - [  -0.0124391838908195,  0.0118268383666873, -0.0007931366562843 ]
  - [  -0.0130376992747188,  0.0148453321307898, -0.0014292895793915 ]
  - [  -0.0128613803535700,  0.0130257196724415, -0.0000668987631798 ]
  - [  -0.0127191059291363,  0.0125528266653419, -0.0000996896997094 ]
  - [   0.0127812279388309, -0.0127527453005314,  0.0000934218987823 ]
  - [   0.0128173967823386, -0.0127554833889008, -0.0000194730237126 ]
  - [   0.0127500910311937, -0.0127951931208372,  0.0000014351680875 ]
  - [   0.0128521537408233, -0.0127895493060350, -0.0000334354117513 ]
  - [   0.0199204199016094,  0.0304799471050501,  0.0162970591336489 ]
  - [   0.0074673397466540,  0.0327316112816334, -0.0040229959413409 ]
  - [   0.0075124008581042,  0.0325678586959839, -0.0029412759467959 ]
  - [   0.0074234241619706,  0.0324728973209858, -0.0042513646185398 ]
  - [  -0.0092151537537575, -0.0322528891265392, -0.0000676818308420 ]
  - [  -0.0071751754730940, -0.0325204916298389,  0.0001625179429539 ]
  - [  -0.0075579751282930, -0.0325548537075520,  0.0000211212900467 ]
  - [  -0.0075629074126482, -0.0325963608920574, -0.0001553975162096 ]
  - [  -0.0360072813928127,  0.0076110064983368, -0.0001522200182080 ]
  - [  -0.0329017192125320,  0.0080350581556559, -0.0007963108364493 ]
  - [  -0.0325632914900780,  0.0075527196750045,  0.0002433298504911 ]
  - [  -0.0326969400048256,  0.0074635017663240,  0.0001506264088675 ]
  - [   0.0318099483847618, -0.0076245591044426, -0.0001484454260208 ]
  - [   0.0322847999632359, -0.0083264121785760, -0.0005621334421448 ]
  - [   0.0325732938945293, -0.0075527839362621,  0.0002423098776489 ]
  - [   0.0326659195125103, -0.0071824714541435, -0.0000880549487192 ]
  - [  -0.0069887991994619,  0.0320172980427742, -0.0000293708581012 ]
  - [  -0.0077851852402091,  0.0325566977262497,  0.0000422493903898 ]
  - [  -0.0075409449636936,  0.0325549170374870,  0.0000296416692436 ]
  - [  -0.0076604224741459,  0.0325272791087627,  0.0001467204128858 ]
  - [   0.0064628133550286, -0.0318632498383522, -0.0000426149345003 ]
  - [   0.0076957112178206, -0.0326008275151253,  0.0000347438035533 ]
  - [   0.0075365751981735, -0.0325618721544743,  0.0000012975069694 ]
  - [   0.0077679958194494, -0.0326079763472080, -0.0000271761673503 ]
  - [   0.0325271338224411,  0.0084653068333864,  0.0000247525749728 ]
  - [   0.0325321443378925,  0.0074849361553788, -0.0000357649405487 ]
  - [   0.0325466990470886,  0.0075627984479070, -0.0000125920632854 ]
  - [   0.0327136777341366,  0.0073433769866824,  0.0000819600099931 ]
  - [  -0.0333946272730827, -0.0092451451346278, -0.0002325489185750 ]
  - [  -0.0323977097868919, -0.0073715690523386, -0.0000874822726473 ]
  - [  -0.0325578823685646, -0.0075739640742540,  0.0001998899970204 ]
  - [  -0.0328750275075436, -0.0074371146038175, -0.0001444434747100 ]
  - [  -0.0048216800205410,  0.0008217829745263,  0.0000062817707658 ]
  - [   0.0000844595779199, -0.0001264636521228,  0.0000248979777098 ]
  - [  -0.0000065583180913,  0.0000064562191255,  0.0002833455801010 ]
  - [  -0.0006465430487879,  0.0000486757780891, -0.0008106566965580 ]
  - [   0.0000031887466321, -0.0002346249384573, -0.0000534792197868 ]
  - [   0.0001000811025733, -0.0002346044493606,  0.0001424757647328 ]
  - [   0.0000061529572122, -0.0000018477730919,  0.0000113497371785 ]
  - [  -0.0001177736849058,  0.0001624696596991,  0.0000077033182606 ]
- atom:   17
  displacement:
    [   0.0000000003950309,  0.0100000000000000,  0.0000000000000000 ]
  forces:
  - [   0.0115726385265589,  0.0152960903942585, -0.0014621058944613 ]
  - [   0.0115714445710182,  0.0152956843376160,  0.0014616749249399 ]
  - [   0.0127526437863708,  0.0127980113029480,  0.0000643883831799 ]
  - [   0.0127532165497541,  0.0127978827804327, -0.0000640489161015 ]
  - [  -0.0125025045126677, -0.0129286348819733, -0.0000187009572983 ]
  - [  -0.0125023955479264, -0.0129286861047149,  0.0000189039856195 ]
  - [  -0.0128146428614855, -0.0128095494583249,  0.0000373814254999 ]