phonopy:
  version: "2.37.1"
  frequency_unit_conversion_factor: 15.633302
  symmetry_tolerance: 1.00000e-05

space_group:
  type: "P1"
  number: 1
  Hall_symbol: "P 1"

primitive_matrix:
- [  1.000000000000000, -0.000000000000000,  0.000000000000000 ]
- [  0.000000000000000,  1.000000000000000,  0.000000000000000 ]
- [  0.000000000000000,  0.000000000000000,  1.000000000000000 ]

supercell_matrix:
- [   3,   0,   0 ]
- [   0,   3,   0 ]
- [   0,   0,   3 ]

primitive_cell:
  lattice:
  - [     3.460297810208891,     0.000000000000000,     0.000000000000000 ] # a
  - [     0.000148462564064,     3.462955778565068,     0.000000000000000 ] # b
  - [     0.001250975020786,     0.001458203671126,     3.463764849922214 ] # c
  points:
  - symbol: Li # 1
    coordinates: [  0.356058955192566,  0.580291032791137,  0.447724372148514 ]
    mass: 6.940000
  - symbol: Sn # 2
    coordinates: [  0.855897247791291,  0.080147981643677,  0.947520673274993 ]
    mass: 118.710000
  reciprocal_lattice: # without 2pi
  - [     0.288992466789913,    -0.000012389578545,    -0.000104367445910 ] # a*
  - [     0.000000000000000,     0.288770652570783,    -0.000121568999033 ] # b*
  - [     0.000000000000000,     0.000000000000000,     0.288703201091280 ] # c*

unit_cell:
  lattice:
  - [     3.460297810208892,     0.000000000000000,     0.000000000000000 ] # a
  - [     0.000148462564064,     3.462955778565068,     0.000000000000000 ] # b
  - [     0.001250975020786,     0.001458203671126,     3.463764849922214 ] # c
  points:
  - symbol: Li # 1
    coordinates: [  0.356058955192566,  0.580291032791138,  0.447724372148514 ]
    mass: 6.940000
    reduced_to: 1
  - symbol: Sn # 2
    coordinates: [  0.855897247791291,  0.080147981643677,  0.947520673274993 ]
    mass: 118.710000
    reduced_to: 2

supercell:
  lattice:
  - [    10.380893430626674,     0.000000000000000,     0.000000000000000 ] # a
  - [     0.000445387692193,    10.388867335695204,     0.000000000000000 ] # b
  - [     0.003752925062357,     0.004374611013379,    10.391294549766641 ] # c
  points:
  - symbol: Li # 1
    coordinates: [  0.118686318397522,  0.193430344263713,  0.149241457382838 ]
    mass: 6.940000
    reduced_to: 1
  - symbol: Li # 2
    coordinates: [  0.452019651730855,  0.193430344263713,  0.149241457382838 ]
    mass: 6.940000
    reduced_to: 1
  - symbol: Li # 3
    coordinates: [  0.785352985064189,  0.193430344263713,  0.149241457382838 ]
    mass: 6.940000
    reduced_to: 1
  - symbol: Li # 4
    coordinates: [  0.118686318397522,  0.526763677597046,  0.149241457382838 ]
    mass: 6.940000
    reduced_to: 1
  - symbol: Li # 5
    coordinates: [  0.452019651730855,  0.526763677597046,  0.149241457382838 ]
    mass: 6.940000
    reduced_to: 1
  - symbol: Li # 6
    coordinates: [  0.785352985064189,  0.526763677597046,  0.149241457382838 ]
    mass: 6.940000
    reduced_to: 1
  - symbol: Li # 7
    coordinates: [  0.118686318397522,  0.860097010930379,  0.149241457382838 ]
    mass: 6.940000
    reduced_to: 1
  - symbol: Li # 8
    coordinates: [  0.452019651730855,  0.860097010930379,  0.149241457382838 ]
    mass: 6.940000
    reduced_to: 1
  - symbol: Li # 9
    coordinates: [  0.785352985064189,  0.860097010930379,  0.149241457382838 ]
    mass: 6.940000
    reduced_to: 1
  - symbol: Li # 10
    coordinates: [  0.118686318397522,  0.193430344263713,  0.482574790716171 ]
    mass: 6.940000
    reduced_to: 1
  - symbol: Li # 11
    coordinates: [  0.452019651730855,  0.193430344263713,  0.482574790716171 ]
    mass: 6.940000
    reduced_to: 1
  - symbol: Li # 12
    coordinates: [  0.785352985064189,  0.193430344263713,  0.482574790716171 ]
    mass: 6.940000
    reduced_to: 1
  - symbol: Li # 13
    coordinates: [  0.118686318397522,  0.526763677597046,  0.482574790716171 ]
    mass: 6.940000
    reduced_to: 1
  - symbol: Li # 14
    coordinates: [  0.452019651730855,  0.526763677597046,  0.482574790716171 ]
    mass: 6.940000
    reduced_to: 1
  - symbol: Li # 15
    coordinates: [  0.785352985064189,  0.526763677597046,  0.482574790716171 ]
    mass: 6.940000
    reduced_to: 1
  - symbol: Li # 16
    coordinates: [  0.118686318397522,  0.860097010930379,  0.482574790716171 ]
    mass: 6.940000
    reduced_to: 1
  - symbol: Li # 17
    coordinates: [  0.452019651730855,  0.860097010930379,  0.482574790716171 ]
    mass: 6.940000
    reduced_to: 1
  - symbol: Li # 18
    coordinates: [  0.785352985064189,  0.860097010930379,  0.482574790716171 ]
    mass: 6.940000
    reduced_to: 1
  - symbol: Li # 19
    coordinates: [  0.118686318397522,  0.193430344263713,  0.815908124049505 ]
    mass: 6.940000
    reduced_to: 1
  - symbol: Li # 20
    coordinates: [  0.452019651730855,  0.193430344263713,  0.815908124049505 ]
    mass: 6.940000
    reduced_to: 1
  - symbol: Li # 21
    coordinates: [  0.785352985064189,  0.193430344263713,  0.815908124049505 ]
    mass: 6.940000
    reduced_to: 1
  - symbol: Li # 22
    coordinates: [  0.118686318397522,  0.526763677597046,  0.815908124049505 ]
    mass: 6.940000
    reduced_to: 1
  - symbol: Li # 23
    coordinates: [  0.452019651730855,  0.526763677597046,  0.815908124049505 ]
    mass: 6.940000
    reduced_to: 1
  - symbol: Li # 24
    coordinates: [  0.785352985064189,  0.526763677597046,  0.815908124049505 ]
    mass: 6.940000
    reduced_to: 1
  - symbol: Li # 25
    coordinates: [  0.118686318397522,  0.860097010930379,  0.815908124049505 ]
    mass: 6.940000
    reduced_to: 1
  - symbol: Li # 26
    coordinates: [  0.452019651730855,  0.860097010930379,  0.815908124049505 ]
    mass: 6.940000
    reduced_to: 1
  - symbol: Li # 27
    coordinates: [  0.785352985064189,  0.860097010930379,  0.815908124049505 ]
    mass: 6.940000
    reduced_to: 1
  - symbol: Sn # 28
    coordinates: [  0.285299082597097,  0.026715993881226,  0.315840224424998 ]
    mass: 118.710000
    reduced_to: 28
  - symbol: Sn # 29
    coordinates: [  0.618632415930430,  0.026715993881226,  0.315840224424998 ]
    mass: 118.710000
    reduced_to: 28
  - symbol: Sn # 30
    coordinates: [  0.951965749263764,  0.026715993881226,  0.315840224424998 ]
    mass: 118.710000
    reduced_to: 28
  - symbol: Sn # 31
    coordinates: [  0.285299082597097,  0.360049327214559,  0.315840224424998 ]
    mass: 118.710000
    reduced_to: 28
  - symbol: Sn # 32
    coordinates: [  0.618632415930430,  0.360049327214559,  0.315840224424998 ]
    mass: 118.710000
    reduced_to: 28
  - symbol: Sn # 33
    coordinates: [  0.951965749263764,  0.360049327214559,  0.315840224424998 ]
    mass: 118.710000
    reduced_to: 28
  - symbol: Sn # 34
    coordinates: [  0.285299082597097,  0.693382660547892,  0.315840224424998 ]
    mass: 118.710000
    reduced_to: 28
  - symbol: Sn # 35
    coordinates: [  0.618632415930430,  0.693382660547892,  0.315840224424998 ]
    mass: 118.710000
    reduced_to: 28
  - symbol: Sn # 36
    coordinates: [  0.951965749263764,  0.693382660547892,  0.315840224424998 ]
    mass: 118.710000
    reduced_to: 28
  - symbol: Sn # 37
    coordinates: [  0.285299082597097,  0.026715993881226,  0.649173557758331 ]
    mass: 118.710000
    reduced_to: 28
  - symbol: Sn # 38
    coordinates: [  0.618632415930430,  0.026715993881226,  0.649173557758331 ]
    mass: 118.710000
    reduced_to: 28
  - symbol: Sn # 39
    coordinates: [  0.951965749263764,  0.026715993881226,  0.649173557758331 ]
    mass: 118.710000
    reduced_to: 28
  - symbol: Sn # 40
    coordinates: [  0.285299082597097,  0.360049327214559,  0.649173557758331 ]
    mass: 118.710000
    reduced_to: 28
  - symbol: Sn # 41
    coordinates: [  0.618632415930430,  0.360049327214559,  0.649173557758331 ]
    mass: 118.710000
    reduced_to: 28
  - symbol: Sn # 42
    coordinates: [  0.951965749263764,  0.360049327214559,  0.649173557758331 ]
    mass: 118.710000
    reduced_to: 28
  - symbol: Sn # 43
    coordinates: [  0.285299082597097,  0.693382660547892,  0.649173557758331 ]
    mass: 118.710000
    reduced_to: 28
  - symbol: Sn # 44
    coordinates: [  0.618632415930430,  0.693382660547892,  0.649173557758331 ]
    mass: 118.710000
    reduced_to: 28
  - symbol: Sn # 45
    coordinates: [  0.951965749263764,  0.693382660547892,  0.649173557758331 ]
    mass: 118.710000
    reduced_to: 28
  - symbol: Sn # 46
    coordinates: [  0.285299082597097,  0.026715993881226,  0.982506891091664 ]
    mass: 118.710000
    reduced_to: 28
  - symbol: Sn # 47
    coordinates: [  0.618632415930430,  0.026715993881226,  0.982506891091664 ]
    mass: 118.710000
    reduced_to: 28
  - symbol: Sn # 48
    coordinates: [  0.951965749263764,  0.026715993881226,  0.982506891091664 ]
    mass: 118.710000
    reduced_to: 28
  - symbol: Sn # 49
    coordinates: [  0.285299082597097,  0.360049327214559,  0.982506891091664 ]
    mass: 118.710000
    reduced_to: 28
  - symbol: Sn # 50
    coordinates: [  0.618632415930430,  0.360049327214559,  0.982506891091664 ]
    mass: 118.710000
    reduced_to: 28
  - symbol: Sn # 51
    coordinates: [  0.951965749263764,  0.360049327214559,  0.982506891091664 ]
    mass: 118.710000
    reduced_to: 28
  - symbol: Sn # 52
    coordinates: [  0.285299082597097,  0.693382660547892,  0.982506891091664 ]
    mass: 118.710000
    reduced_to: 28
  - symbol: Sn # 53
    coordinates: [  0.618632415930430,  0.693382660547892,  0.982506891091664 ]
    mass: 118.710000
    reduced_to: 28
  - symbol: Sn # 54
    coordinates: [  0.951965749263764,  0.693382660547892,  0.982506891091664 ]
    mass: 118.710000
    reduced_to: 28

displacements:
- atom:    1
  displacement:
    [   0.0100000000000000,  0.0000000000000000,  0.0000000000000000 ]
  forces:
  - [  -0.0158106349408627, -0.0008532810024917, -0.0011929587926716 ]
  - [  -0.0009777940576896, -0.0008572305087000, -0.0012197885662317 ]
  - [  -0.0010404300410300, -0.0008560229325667, -0.0012210359564051 ]
  - [  -0.0013007209636271, -0.0008571828948334, -0.0012209524866194 ]
  - [  -0.0009943605400622, -0.0008642922621220, -0.0012180805206299 ]
  - [  -0.0009911917150021, -0.0008446938591078, -0.0012210467830300 ]
  - [  -0.0013011966366321, -0.0008534295484424, -0.0012208363041282 ]
  - [  -0.0009950795210898, -0.0008447613799945, -0.0012185336090624 ]
  - [  -0.0009910468943417, -0.0008652368560433, -0.0012195520102978 ]
  - [  -0.0013017189921811, -0.0008557613473386, -0.0012237326009199 ]
  - [  -0.0009931505192071, -0.0008551134960726, -0.0012304560514167 ]
  - [  -0.0009909570217133, -0.0008573519880883, -0.0012106727808714 ]
  - [  -0.0007222198764794, -0.0008571257931180, -0.0012238970957696 ]
  - [  -0.0011884937994182, -0.0011230224044994, -0.0014899243833497 ]
  - [  -0.0011894691269845, -0.0005838020588271, -0.0009505011839792 ]
  - [  -0.0007207692833617, -0.0008539783302695, -0.0012231478467584 ]
  - [  -0.0011883508414030, -0.0005878233350813, -0.0014912118203938 ]
  - [  -0.0011882539838552, -0.0011253306875005, -0.0009509205701761 ]
  - [  -0.0013017181772739, -0.0008562774164602, -0.0012191783171147 ]
  - [  -0.0009958900045604, -0.0008564322488382, -0.0012106408830732 ]
  - [  -0.0009900862351060, -0.0008564763120376, -0.0012297807261348 ]
  - [  -0.0007201104890555, -0.0008577785338275, -0.0012169987894595 ]
  - [  -0.0011879276717082, -0.0011229148367420, -0.0009538582526147 ]
  - [  -0.0011893240734935, -0.0005832089809701, -0.0014911391772330 ]
  - [  -0.0007212631753646, -0.0008530941559002, -0.0012187402462587 ]
  - [  -0.0011878253426403, -0.0005866227438673, -0.0009525800123811 ]
  - [  -0.0011889813467860, -0.0011259400052950, -0.0014914082130417 ]
  - [   0.0034367693588138, -0.0018893813248724,  0.0039672143757343 ]
  - [   0.0005039993557148,  0.0008566515753046,  0.0012197196483612 ]
  - [   0.0034027462825179,  0.0035484880208969, -0.0014745239168406 ]
  - [   0.0034336182288826,  0.0035988409072161,  0.0039648558013141 ]
  - [   0.0005060580442660,  0.0008563809096813,  0.0012221182696521 ]
  - [   0.0034033958800137, -0.0018361168913543, -0.0014721746556461 ]
  - [   0.0009272280149162,  0.0008558436529711,  0.0010523600503802 ]
  - [   0.0009316081996076,  0.0008543603471480,  0.0012213215231895 ]
  - [   0.0009247972047888,  0.0008540256530978,  0.0013887025415897 ]
  - [   0.0009242498781532,  0.0010241309646517,  0.0012218304909766 ]
  - [   0.0009309310116805,  0.0008562598377466,  0.0012222025543451 ]
  - [   0.0009241281077266,  0.0006899093277752,  0.0012217219918966 ]
  - [   0.0009267160785384,  0.0006872918456793,  0.0012222498189658 ]
  - [   0.0009305672720075,  0.0008559841662645,  0.0012205843813717 ]
  - [   0.0009243746753782,  0.0010225567966700,  0.0012205946259201 ]
  - [   0.0008936678059399,  0.0008544608717784,  0.0012227173428982 ]
  - [   0.0011097107781097,  0.0008525555604137,  0.0012225436512381 ]
  - [   0.0008936743251979,  0.0008544277516194,  0.0012211767025292 ]
  - [   0.0034250961616635, -0.0018790834583342, -0.0015184108633548 ]
  - [   0.0005071158520877,  0.0008573625236750,  0.0012200371129438 ]
  - [   0.0033875121735036,  0.0035284818150103,  0.0038911714218557 ]
  - [   0.0034358589909971,  0.0036021140404046, -0.0015340079553425 ]
  - [   0.0005071079358459,  0.0008546416647732,  0.0012198477052152 ]
  - [   0.0033987956121564, -0.0018280935473740,  0.0039085829630494 ]
  - [   0.0009248498827219,  0.0008532531792298,  0.0013866473454982 ]
  - [   0.0009309321176261,  0.0008542917203158,  0.0012198223266751 ]
  - [   0.0009235120378435,  0.0008545420132577,  0.0010526694823056 ]
- atom:    1
  displacement:
    [  -0.0100000000000000,  0.0000000000000000,  0.0000000000000000 ]
  forces:
  - [   0.0138770714402199, -0.0008591520600021, -0.0012450127396733 ]
  - [  -0.0008907230803743, -0.0008583205053583, -0.0012202722718939 ]
  - [  -0.0009529766393825, -0.0008550486527383, -0.0012182274367660 ]
  - [  -0.0006317873485386, -0.0008558550616726, -0.0012185105588287 ]
  - [  -0.0009395861998200, -0.0008435244089924, -0.0012203308288008 ]
  - [  -0.0009362371638417, -0.0008665177738294, -0.0012202017242089 ]
  - [  -0.0006323088891804, -0.0008544358424842, -0.0012184688821435 ]
  - [  -0.0009400948183611, -0.0008651412790641, -0.0012199147604406 ]
  - [  -0.0009364034049213, -0.0008443493861705, -0.0012192784342915 ]
  - [  -0.0006319326930679, -0.0008555795066059, -0.0012214179150760 ]
  - [  -0.0009412197978236, -0.0008564282907173, -0.0012118953745812 ]
  - [  -0.0009353854693472, -0.0008563530864194, -0.0012332756305113 ]
  - [  -0.0012106848880649, -0.0008564874879085, -0.0012233108282089 ]
  - [  -0.0007429755060002, -0.0005847119027749, -0.0009514334960841 ]
  - [  -0.0007442153291777, -0.0011226636124775, -0.0014894080813974 ]
  - [  -0.0012121802428737, -0.0008546400349587, -0.0012225974351168 ]
  - [  -0.0007422789931297, -0.0011253980919719, -0.0009523346088827 ]
  - [  -0.0007422219496220, -0.0005871241446584, -0.0014901271788403 ]
  - [  -0.0006317265797406, -0.0008560132118873, -0.0012194394366816 ]
  - [  -0.0009403803851455, -0.0008570044883527, -0.0012315459316596 ]
  - [  -0.0009380340343341, -0.0008560577989556, -0.0012113393750042 ]
  - [  -0.0012116080615669, -0.0008564022718929, -0.0012184637598693 ]
  - [  -0.0007419931935146, -0.0005846577114426, -0.0014916210202500 ]
  - [  -0.0007428577519022, -0.0011223444016650, -0.0009523263433948 ]
  - [  -0.0012097847647965, -0.0008544752490707, -0.0012202693615109 ]
  - [  -0.0007427945383824, -0.0011243105400354, -0.0014898912049830 ]
  - [  -0.0007432590937242, -0.0005876397481188, -0.0009532326366752 ]
  - [  -0.0014713616110384,  0.0035488153807819, -0.0014745048247278 ]
  - [   0.0014241160824895,  0.0008561916183680,  0.0012190709821880 ]
  - [  -0.0015068335924298, -0.0018891647923738,  0.0039681638590991 ]
  - [  -0.0014695827849209, -0.0018344069831073, -0.0014703562483191 ]
  - [   0.0014258956070989,  0.0008565862663090,  0.0012216540053487 ]
  - [  -0.0015033916570246,  0.0036000967957079,  0.0039670416153967 ]
  - [   0.0010105543769896,  0.0008539811242372,  0.0013875840231776 ]
  - [   0.0009991006227210,  0.0008540641283616,  0.0012211808934808 ]
  - [   0.0010080775246024,  0.0008557067485526,  0.0010532364249229 ]
  - [   0.0010064002126455,  0.0006892775418237,  0.0012230922002345 ]
  - [   0.0009988043457270,  0.0008565103635192,  0.0012221839278936 ]
  - [   0.0010073282755911,  0.0010250960476696,  0.0012202789075673 ]
  - [   0.0010095987236127,  0.0010222829878330,  0.0012203168589622 ]
  - [   0.0009982534684241,  0.0008558812551200,  0.0012200470082462 ]
  - [   0.0010075466707349,  0.0006870911456645,  0.0012222751975060 ]
  - [   0.0010354584082961,  0.0008541417191736,  0.0012228866107762 ]
  - [   0.0008254762506112,  0.0008526003221050,  0.0012232753215358 ]
  - [   0.0010360559681430,  0.0008546025492251,  0.0012221136130393 ]
  - [  -0.0014586490578949,  0.0035401752684265,  0.0039052120409906 ]
  - [   0.0014231684617698,  0.0008566840551794,  0.0012191162677482 ]
  - [  -0.0014842352829874, -0.0018653022125363, -0.0015050743240863 ]
  - [  -0.0014733322896063, -0.0018381178379059,  0.0039186538197100 ]
  - [   0.0014271195977926,  0.0008547441102564,  0.0012196291936561 ]
  - [  -0.0015002312138677,  0.0035912268795073, -0.0015203584916890 ]
  - [   0.0010078363120556,  0.0008546239696443,  0.0010512385051697 ]
  - [   0.0009991527767852,  0.0008544425945729,  0.0012191822752357 ]
  - [   0.0010062912479043,  0.0008527931640856,  0.0013870061375201 ]
- atom:    1
  displacement:
    [   0.0000004287163147,  0.0099999999908101,  0.0000000000000000 ]
  forces:
  - [  -0.0009642313234508, -0.0157028287649155, -0.0011885352432728 ]
  - [  -0.0009673929889686, -0.0011913414346054, -0.0012214723974466 ]
  - [  -0.0009640973876230, -0.0011891686590388, -0.0012209876440465 ]
  - [  -0.0009655822068453, -0.0008811613079160, -0.0012197304749861 ]
  - [  -0.0009762467816472, -0.0008831152226776, -0.0012179801706225 ]
  - [  -0.0009545451030135, -0.0008850926533341, -0.0012198830954731 ]
  - [  -0.0009674532338977, -0.0009414390660822, -0.0012209174456075 ]
  - [  -0.0009556545992382, -0.0008823843672872, -0.0012195478193462 ]
  - [  -0.0009750425815582, -0.0008820987422951, -0.0012194383889437 ]
  - [  -0.0009669905994087, -0.0011915329378098, -0.0012236982584000 ]
  - [  -0.0009677606867626, -0.0006102971965447, -0.0012226062826812 ]
  - [  -0.0009624690283090, -0.0006100880564190, -0.0012236260809004 ]
  - [  -0.0009659740026109, -0.0008813520544209, -0.0012299288064241 ]
  - [  -0.0012346288422123, -0.0010779217118397, -0.0014901410322636 ]
  - [  -0.0006983124767430, -0.0010774824768305, -0.0014896547654644 ]
  - [  -0.0009671553270891, -0.0008818692294881, -0.0012114691780880 ]
  - [  -0.0006954921409488, -0.0010796897113323, -0.0009521571919322 ]
  - [  -0.0012347479350865, -0.0010797262657434, -0.0009506575297564 ]
  - [  -0.0009668237762526, -0.0011920105898753, -0.0012194837909192 ]
  - [  -0.0009691889863461, -0.0006100981263444, -0.0012190063716844 ]
  - [  -0.0009629745618440, -0.0006108232773840, -0.0012184017105028 ]
  - [  -0.0009655563626438, -0.0008836959605105, -0.0012098969891667 ]
  - [  -0.0012338659726083, -0.0010779361473396, -0.0009536680299789 ]
  - [  -0.0006976143922657, -0.0010765523184091, -0.0009529261151329 ]
  - [  -0.0009657780174166, -0.0008792267180979, -0.0012286066776142 ]
  - [  -0.0006954555865377, -0.0010791601380333, -0.0014908774755895 ]
  - [  -0.0012355325743556, -0.0010799325536937, -0.0014916484942660 ]
  - [  -0.0017211169470102,  0.0032999059185386, -0.0014783334918320 ]
  - [   0.0009637760231271,  0.0008136346004903,  0.0013870918191969 ]
  - [   0.0036503835581243,  0.0032992556225508, -0.0014770813286304 ]
  - [   0.0037032538093626,  0.0033290572464466,  0.0039673568680882 ]
  - [   0.0009662703960203,  0.0008129198104143,  0.0010527558624744 ]
  - [  -0.0017715829890221,  0.0033295429311693,  0.0039692698046565 ]
  - [   0.0009690690785646,  0.0003933975240216,  0.0012201862409711 ]
  - [   0.0009653894230723,  0.0008216387941502,  0.0012211534194648 ]
  - [   0.0009661194635555,  0.0003934844862670,  0.0012213522568345 ]
  - [   0.0011336493771523,  0.0008137472323142,  0.0012217087205499 ]
  - [   0.0009644973324612,  0.0007849954999983,  0.0012215450406075 ]
  - [   0.0007979145739228,  0.0008153743110597,  0.0012218691408634 ]
  - [   0.0007989590521902,  0.0008137384429574,  0.0012219762429595 ]
  - [   0.0009650746360421,  0.0007848525419831,  0.0012201890349388 ]
  - [   0.0011348825646564,  0.0008131642825902,  0.0012211552821100 ]
  - [   0.0009645610116422,  0.0008209643419832,  0.0012230973225087 ]
  - [   0.0009669701685198,  0.0009950419189408,  0.0012227034894750 ]
  - [   0.0009655021131039,  0.0008214414701797,  0.0012216339819133 ]
  - [  -0.0017095096409321,  0.0032950968015939,  0.0039103711023927 ]
  - [   0.0009661382064223,  0.0008140802383423,  0.0010523531818762 ]
  - [   0.0036324267275631,  0.0032820142805576,  0.0038936082273722 ]
  - [   0.0037051774561405,  0.0033307811245322, -0.0015364295104519 ]
  - [   0.0009666113182902,  0.0008121621794999,  0.0013892371207476 ]
  - [  -0.0017639247234911,  0.0033187805674970, -0.0015208644326776 ]
  - [   0.0009657321497798,  0.0003933375701308,  0.0012193076545373 ]
  - [   0.0009651003056206,  0.0008211589884013,  0.0012196814641356 ]
  - [   0.0009652571752667,  0.0003944555937778,  0.0012200239580125 ]
- atom:    1
  displacement:
    [  -0.0000004287163147, -0.0099999999908101,  0.0000000000000000 ]
  forces:
  - [  -0.0009693822357804,  0.0139907812699676, -0.0012496103299782 ]
  - [  -0.0009659693459980, -0.0005239090532996, -0.0012186011299491 ]
  - [  -0.0009649080457166, -0.0005219080485404, -0.0012181119527668 ]
  - [  -0.0009667491540313, -0.0007695167441852, -0.0012198018375784 ]
  - [  -0.0009554335847497, -0.0008267096709460, -0.0012202644720674 ]
  - [  -0.0009749704040587, -0.0008280673064291, -0.0012214400339872 ]
  - [  -0.0009660020004958, -0.0008298982866108, -0.0012181116035208 ]
  - [  -0.0009776618098840, -0.0008256137371063, -0.0012188344262540 ]
  - [  -0.0009542136685923, -0.0008256975561380, -0.0012192691210657 ]
  - [  -0.0009666803525761, -0.0005197935388424, -0.0012213808950037 ]
  - [  -0.0009673301829025, -0.0011011855676770, -0.0012224348029122 ]
  - [  -0.0009629052365199, -0.0011035054922104, -0.0012231982545927 ]
  - [  -0.0009672254091129, -0.0008313907892443, -0.0012141931802034 ]
  - [  -0.0006961509352550, -0.0006304496200755, -0.0009511676034890 ]
  - [  -0.0012359567917883, -0.0006295813946053, -0.0009502740576863 ]
  - [  -0.0009658971102908, -0.0008276228327304, -0.0012317276559770 ]
  - [  -0.0012345071882010, -0.0006328839808702, -0.0014914493076503 ]
  - [  -0.0006964437197894, -0.0006321346154436, -0.0014903877163306 ]
  - [  -0.0009665094548836, -0.0005203038454056, -0.0012197131291032 ]
  - [  -0.0009680349612609, -0.0011034868657589, -0.0012202465441078 ]
  - [  -0.0009643698576838, -0.0011017676442862, -0.0012198967160657 ]
  - [  -0.0009662318625487, -0.0008295139414258, -0.0012284955009818 ]
  - [  -0.0006956091965549, -0.0006302938563749, -0.0014918973902240 ]
  - [  -0.0012350003235042, -0.0006297341315076, -0.0014905352145433 ]
  - [  -0.0009653475135565, -0.0008293179562315, -0.0012131935218349 ]
  - [  -0.0012345034629107, -0.0006311566103250, -0.0009516417048872 ]
  - [  -0.0006971517577767, -0.0006326899165288, -0.0009529283270240 ]
  - [   0.0037063527852297, -0.0016202330589294,  0.0039715943858027 ]
  - [   0.0009648988489062,  0.0008994688978419,  0.0010499306954443 ]
  - [  -0.0017754731234163, -0.0016187541186810,  0.0039713033474982 ]
  - [  -0.0017185831675306, -0.0015848805196583, -0.0014735246077180 ]
  - [   0.0009648724226281,  0.0008995640091598,  0.0013895891606808 ]
  - [   0.0036516455002129, -0.0015863636508584, -0.0014741006307304 ]
  - [   0.0009686383418739,  0.0013159437803552,  0.0012200227938592 ]
  - [   0.0009655336034484,  0.0008870907477103,  0.0012208339758217 ]
  - [   0.0009663061937317,  0.0013164565898478,  0.0012215049937367 ]
  - [   0.0007964758551680,  0.0008980765705928,  0.0012230707798153 ]
  - [   0.0009651522850618,  0.0009277025237679,  0.0012222332879901 ]
  - [   0.0011345585808158,  0.0008992273360491,  0.0012202751822770 ]
  - [   0.0011358292540535,  0.0008974685333669,  0.0012200047494844 ]
  - [   0.0009640973294154,  0.0009269644506276,  0.0012206318788230 ]
  - [   0.0007987070712261,  0.0008968012407422,  0.0012218430638313 ]
  - [   0.0009646145626903,  0.0008875121129677,  0.0012222880031914 ]
  - [   0.0009670617873780,  0.0007101348019205,  0.0012230479624122 ]
  - [   0.0009656387846917,  0.0008878470398486,  0.0012215212918818 ]
  - [   0.0036960490979254, -0.0016129395226017, -0.0015238283667713 ]
  - [   0.0009646252728999,  0.0008995030075312,  0.0013881244231015 ]
  - [  -0.0017495339270681, -0.0015986566431820, -0.0015082046156749 ]
  - [  -0.0017231935635209, -0.0015878030098975,  0.0039221551269293 ]
  - [   0.0009679687209427,  0.0008971286006272,  0.0010515521280468 ]
  - [   0.0036422866396606, -0.0015757470391691,  0.0039093974046409 ]
  - [   0.0009665153920650,  0.0013151038438082,  0.0012186092790216 ]
  - [   0.0009648131090216,  0.0008875359781086,  0.0012196537572891 ]
  - [   0.0009653214365244,  0.0013131969608366,  0.0012192825088277 ]
- atom:    1
  displacement:
    [   0.0000036116043743,  0.0000042098800293,  0.0099999984616611 ]
  forces:
  - [  -0.0009462838643230, -0.0008318815380335, -0.0160673577338457 ]
  - [  -0.0009682192467153, -0.0008591896039434, -0.0015539013547823 ]
  - [  -0.0009641748620197, -0.0008571937214583, -0.0015535098500550 ]
  - [  -0.0009674890898168, -0.0008582347072661, -0.0015554132405668 ]
  - [  -0.0009674048051238, -0.0008554703090340, -0.0009728560689837 ]
  - [  -0.0009625884704292, -0.0008574003586546, -0.0009742398979142 ]
  - [  -0.0009681995143183, -0.0008542179130018, -0.0015551035758108 ]
  - [  -0.0009685466066003, -0.0008527269819751, -0.0009727831929922 ]
  - [  -0.0009620772907510, -0.0008522560819983, -0.0009730824385770 ]
  - [  -0.0009667260455899, -0.0008557967958041, -0.0012507743667811 ]
  - [  -0.0009753780905157, -0.0008550296770409, -0.0012492380337790 ]
  - [  -0.0009537630248815, -0.0008560467395000, -0.0012519983574748 ]
  - [  -0.0009658688213676, -0.0008631939999759, -0.0012483051978052 ]
  - [  -0.0012346665607765, -0.0011231555836275, -0.0014448401052505 ]
  - [  -0.0006984691135585, -0.0011228390503675, -0.0014444062253460 ]
  - [  -0.0009656558977440, -0.0008465019636787, -0.0012499715667218 ]
  - [  -0.0012344336137176, -0.0005876212380826, -0.0014461874961853 ]
  - [  -0.0006970048998483, -0.0005875027272850, -0.0014446803834289 ]
  - [  -0.0009679539361969, -0.0008573909872212, -0.0013100412907079 ]
  - [  -0.0009559924365021, -0.0008569315541536, -0.0012490071821958 ]
  - [  -0.0009743693517521, -0.0008564306772314, -0.0012467289343476 ]
  - [  -0.0009659847710282, -0.0008454007329419, -0.0012456439435482 ]
  - [  -0.0006952633266337, -0.0005841711536050, -0.0014464413980022 ]
  - [  -0.0012358566746116, -0.0005830508307554, -0.0014454633928835 ]
  - [  -0.0009656205074862, -0.0008631025557406, -0.0012450604699552 ]
  - [  -0.0006954185664654, -0.0011250884272158, -0.0014448058791459 ]
  - [  -0.0012359959073365, -0.0011263426858932, -0.0014460140373558 ]
  - [   0.0037056023720652, -0.0018934436375275,  0.0036949682980776 ]
  - [   0.0009645073441789,  0.0010258583351970,  0.0011763614602387 ]
  - [  -0.0017742014024407, -0.0018905309261754,  0.0036929841153324 ]
  - [   0.0037030288949609,  0.0036027473397553,  0.0036934709642082 ]
  - [   0.0009661028161645,  0.0006870040670037,  0.0011790888383985 ]
  - [  -0.0017719292081892,  0.0036018006503582,  0.0036944076418877 ]
  - [   0.0007999967783689,  0.0008553903317079,  0.0011783656664193 ]
  - [   0.0009655355243012,  0.0008541421848349,  0.0011507533490658 ]
  - [   0.0011354737216607,  0.0008553015068173,  0.0011791628785431 ]
  - [   0.0009654960012995,  0.0008563564624637,  0.0007611375185661 ]
  - [   0.0009649310959503,  0.0008565275929868,  0.0011893524788320 ]
  - [   0.0009658031631261,  0.0008575343526900,  0.0007606507278979 ]
  - [   0.0009683198295534,  0.0008557871915400,  0.0007592253969051 ]
  - [   0.0009642820805311,  0.0008557587862015,  0.0011878320947289 ]
  - [   0.0009661648073234,  0.0008550630882382,  0.0007602721452713 ]
  - [   0.0009646886028349,  0.0008540065027773,  0.0011901623802260 ]
  - [   0.0009668105631135,  0.0008526394958608,  0.0013645208673552 ]
  - [   0.0009654401801527,  0.0008546088356525,  0.0011888318695128 ]
  - [  -0.0017098612152040,  0.0035455883480608,  0.0036580609157681 ]
  - [   0.0009652846492827,  0.0006888727657497,  0.0011766300303861 ]
  - [   0.0036337161436677,  0.0035327719524503,  0.0036453153006732 ]
  - [  -0.0017256056889892, -0.0018439958803356,  0.0036688758991659 ]
  - [   0.0009673470631242,  0.0010234387591481,  0.0011764509836212 ]
  - [   0.0036457194946706, -0.0018315748311579,  0.0036593284457922 ]
  - [   0.0011344803497195,  0.0008543787989765,  0.0011759718181565 ]
  - [   0.0009647945989855,  0.0008538174442947,  0.0011481489054859 ]
  - [   0.0007974728941917,  0.0008542876457796,  0.0011775316670537 ]
- atom:    1
  displacement:
    [  -0.0000036116043743, -0.0000042098800293, -0.0099999984616611 ]
  forces:
  - [  -0.0009879777207971, -0.0008808542042971,  0.0136292101815343 ]
  - [  -0.0009653509478085, -0.0008563195005991, -0.0008862699614838 ]
  - [  -0.0009645553072914, -0.0008540428243577, -0.0008857043576427 ]
  - [  -0.0009650075808167, -0.0008551731007174, -0.0008842134848237 ]
  - [  -0.0009672050364316, -0.0008551282808185, -0.0014655237318948 ]
  - [  -0.0009639011695981, -0.0008566516917199, -0.0014670663513243 ]
  - [  -0.0009653795277700, -0.0008542123250663, -0.0008840383961797 ]
  - [  -0.0009675893816166, -0.0008543332223780, -0.0014656465500593 ]