phonopy:
  version: "2.37.1"
  frequency_unit_conversion_factor: 15.633302
  symmetry_tolerance: 1.00000e-05

space_group:
  type: "Cmmm"
  number: 65
  Hall_symbol: "-C 2 2"

primitive_matrix:
- [  1.000000000000000,  0.000000000000000,  0.000000000000000 ]
- [  0.000000000000000,  1.000000000000000,  0.000000000000000 ]
- [  0.000000000000000,  0.000000000000000,  1.000000000000000 ]

supercell_matrix:
- [   4,   0,   0 ]
- [   0,   4,   0 ]
- [   0,   0,   2 ]

primitive_cell:
  lattice:
  - [     3.289715563342049,     0.000000000000000,     0.000000000000000 ] # a
  - [    -0.011102734400428,     3.289696855515771,     0.000000000000000 ] # b
  - [     0.000000033919325,     0.000000335457994,     9.050182085169336 ] # c
  points:
  - symbol: Li # 1
    coordinates: [  0.000000004702882,  0.000000003736393,  0.000000002976899 ]
    mass: 6.940000
  - symbol: Sn # 2
    coordinates: [  0.499999998364270,  0.499999995932376,  0.780744545029804 ]
    mass: 118.710000
  - symbol: Sn # 3
    coordinates: [  0.999999996584144,  0.000000001571841,  0.499999999652648 ]
    mass: 118.710000
  - symbol: Sn # 4
    coordinates: [  0.500000000210503,  0.499999998888887,  0.219255452255091 ]
    mass: 118.710000
  reciprocal_lattice: # without 2pi
  - [     0.303977648141741,     0.001025925256707,    -0.000000001177310 ] # a*
  - [     0.000000000000000,     0.303979376799816,    -0.000000011267432 ] # b*
  - [     0.000000000000000,     0.000000000000000,     0.110495014419513 ] # c*

unit_cell:
  lattice:
  - [     3.289715563342049,     0.000000000000000,     0.000000000000000 ] # a
  - [    -0.011102734400428,     3.289696855515771,     0.000000000000000 ] # b
  - [     0.000000033919325,     0.000000335457994,     9.050182085169334 ] # c
  points:
  - symbol: Li # 1
    coordinates: [  0.000000004702882,  0.000000003736393,  0.000000002976899 ]
    mass: 6.940000
    reduced_to: 1
  - symbol: Sn # 2
    coordinates: [  0.499999998364270,  0.499999995932376,  0.780744545029805 ]
    mass: 118.710000
    reduced_to: 2
  - symbol: Sn # 3
    coordinates: [  0.999999996584144,  0.000000001571841,  0.499999999652648 ]
    mass: 118.710000
    reduced_to: 3
  - symbol: Sn # 4
    coordinates: [  0.500000000210503,  0.499999998888887,  0.219255452255091 ]
    mass: 118.710000
    reduced_to: 4

supercell:
  lattice:
  - [    13.158862253368197,     0.000000000000000,     0.000000000000000 ] # a
  - [    -0.044410937601714,    13.158787422063085,     0.000000000000000 ] # b
  - [     0.000000067838649,     0.000000670915988,    18.100364170338668 ] # c
  points:
  - symbol: Li # 1
    coordinates: [  0.000000001175721,  0.000000000934098,  0.000000001488450 ]
    mass: 6.940000
    reduced_to: 1
  - symbol: Li # 2
    coordinates: [  0.250000001175721,  0.000000000934098,  0.000000001488450 ]
    mass: 6.940000
    reduced_to: 1
  - symbol: Li # 3
    coordinates: [  0.500000001175721,  0.000000000934098,  0.000000001488450 ]
    mass: 6.940000
    reduced_to: 1
  - symbol: Li # 4
    coordinates: [  0.750000001175721,  0.000000000934098,  0.000000001488450 ]
    mass: 6.940000
    reduced_to: 1
  - symbol: Li # 5
    coordinates: [  0.000000001175721,  0.250000000934098,  0.000000001488450 ]
    mass: 6.940000
    reduced_to: 1
  - symbol: Li # 6
    coordinates: [  0.250000001175721,  0.250000000934098,  0.000000001488450 ]
    mass: 6.940000
    reduced_to: 1
  - symbol: Li # 7
    coordinates: [  0.500000001175721,  0.250000000934098,  0.000000001488450 ]
    mass: 6.940000
    reduced_to: 1
  - symbol: Li # 8
    coordinates: [  0.750000001175721,  0.250000000934098,  0.000000001488450 ]
    mass: 6.940000
    reduced_to: 1
  - symbol: Li # 9
    coordinates: [  0.000000001175721,  0.500000000934098,  0.000000001488450 ]
    mass: 6.940000
    reduced_to: 1
  - symbol: Li # 10
    coordinates: [  0.250000001175721,  0.500000000934098,  0.000000001488450 ]
    mass: 6.940000
    reduced_to: 1
  - symbol: Li # 11
    coordinates: [  0.500000001175721,  0.500000000934098,  0.000000001488450 ]
    mass: 6.940000
    reduced_to: 1
  - symbol: Li # 12
    coordinates: [  0.750000001175721,  0.500000000934098,  0.000000001488450 ]
    mass: 6.940000
    reduced_to: 1
  - symbol: Li # 13
    coordinates: [  0.000000001175721,  0.750000000934098,  0.000000001488450 ]
    mass: 6.940000
    reduced_to: 1
  - symbol: Li # 14
    coordinates: [  0.250000001175721,  0.750000000934098,  0.000000001488450 ]
    mass: 6.940000
    reduced_to: 1
  - symbol: Li # 15
    coordinates: [  0.500000001175721,  0.750000000934098,  0.000000001488450 ]
    mass: 6.940000
    reduced_to: 1
  - symbol: Li # 16
    coordinates: [  0.750000001175721,  0.750000000934098,  0.000000001488450 ]
    mass: 6.940000
    reduced_to: 1
  - symbol: Li # 17
    coordinates: [  0.000000001175721,  0.000000000934098,  0.500000001488449 ]
    mass: 6.940000
    reduced_to: 1
  - symbol: Li # 18
    coordinates: [  0.250000001175721,  0.000000000934098,  0.500000001488449 ]
    mass: 6.940000
    reduced_to: 1
  - symbol: Li # 19
    coordinates: [  0.500000001175721,  0.000000000934098,  0.500000001488449 ]
    mass: 6.940000
    reduced_to: 1
  - symbol: Li # 20
    coordinates: [  0.750000001175721,  0.000000000934098,  0.500000001488449 ]
    mass: 6.940000
    reduced_to: 1
  - symbol: Li # 21
    coordinates: [  0.000000001175721,  0.250000000934098,  0.500000001488449 ]
    mass: 6.940000
    reduced_to: 1
  - symbol: Li # 22
    coordinates: [  0.250000001175721,  0.250000000934098,  0.500000001488449 ]
    mass: 6.940000
    reduced_to: 1
  - symbol: Li # 23
    coordinates: [  0.500000001175721,  0.250000000934098,  0.500000001488449 ]
    mass: 6.940000
    reduced_to: 1
  - symbol: Li # 24
    coordinates: [  0.750000001175721,  0.250000000934098,  0.500000001488449 ]
    mass: 6.940000
    reduced_to: 1
  - symbol: Li # 25
    coordinates: [  0.000000001175721,  0.500000000934098,  0.500000001488449 ]
    mass: 6.940000
    reduced_to: 1
  - symbol: Li # 26
    coordinates: [  0.250000001175721,  0.500000000934098,  0.500000001488449 ]
    mass: 6.940000
    reduced_to: 1
  - symbol: Li # 27
    coordinates: [  0.500000001175721,  0.500000000934098,  0.500000001488449 ]
    mass: 6.940000
    reduced_to: 1
  - symbol: Li # 28
    coordinates: [  0.750000001175721,  0.500000000934098,  0.500000001488449 ]
    mass: 6.940000
    reduced_to: 1
  - symbol: Li # 29
    coordinates: [  0.000000001175721,  0.750000000934098,  0.500000001488449 ]
    mass: 6.940000
    reduced_to: 1
  - symbol: Li # 30
    coordinates: [  0.250000001175721,  0.750000000934098,  0.500000001488449 ]
    mass: 6.940000
    reduced_to: 1
  - symbol: Li # 31
    coordinates: [  0.500000001175721,  0.750000000934098,  0.500000001488449 ]
    mass: 6.940000
    reduced_to: 1
  - symbol: Li # 32
    coordinates: [  0.750000001175721,  0.750000000934098,  0.500000001488449 ]
    mass: 6.940000
    reduced_to: 1
  - symbol: Sn # 33
    coordinates: [  0.124999999591067,  0.124999998983094,  0.390372272514902 ]
    mass: 118.710000
    reduced_to: 33
  - symbol: Sn # 34
    coordinates: [  0.374999999591067,  0.124999998983094,  0.390372272514902 ]
    mass: 118.710000
    reduced_to: 33
  - symbol: Sn # 35
    coordinates: [  0.624999999591067,  0.124999998983094,  0.390372272514902 ]
    mass: 118.710000
    reduced_to: 33
  - symbol: Sn # 36
    coordinates: [  0.874999999591067,  0.124999998983094,  0.390372272514902 ]
    mass: 118.710000
    reduced_to: 33
  - symbol: Sn # 37
    coordinates: [  0.124999999591067,  0.374999998983094,  0.390372272514902 ]
    mass: 118.710000
    reduced_to: 33
  - symbol: Sn # 38
    coordinates: [  0.374999999591067,  0.374999998983094,  0.390372272514902 ]
    mass: 118.710000
    reduced_to: 33
  - symbol: Sn # 39
    coordinates: [  0.624999999591067,  0.374999998983094,  0.390372272514902 ]
    mass: 118.710000
    reduced_to: 33
  - symbol: Sn # 40
    coordinates: [  0.874999999591067,  0.374999998983094,  0.390372272514902 ]
    mass: 118.710000
    reduced_to: 33
  - symbol: Sn # 41
    coordinates: [  0.124999999591067,  0.624999998983094,  0.390372272514902 ]
    mass: 118.710000
    reduced_to: 33
  - symbol: Sn # 42
    coordinates: [  0.374999999591067,  0.624999998983094,  0.390372272514902 ]
    mass: 118.710000
    reduced_to: 33
  - symbol: Sn # 43
    coordinates: [  0.624999999591067,  0.624999998983094,  0.390372272514902 ]
    mass: 118.710000
    reduced_to: 33
  - symbol: Sn # 44
    coordinates: [  0.874999999591067,  0.624999998983094,  0.390372272514902 ]
    mass: 118.710000
    reduced_to: 33
  - symbol: Sn # 45
    coordinates: [  0.124999999591067,  0.874999998983094,  0.390372272514902 ]
    mass: 118.710000
    reduced_to: 33
  - symbol: Sn # 46
    coordinates: [  0.374999999591067,  0.874999998983094,  0.390372272514902 ]
    mass: 118.710000
    reduced_to: 33
  - symbol: Sn # 47
    coordinates: [  0.624999999591067,  0.874999998983094,  0.390372272514902 ]
    mass: 118.710000
    reduced_to: 33
  - symbol: Sn # 48
    coordinates: [  0.874999999591067,  0.874999998983094,  0.390372272514902 ]
    mass: 118.710000
    reduced_to: 33
  - symbol: Sn # 49
    coordinates: [  0.124999999591067,  0.124999998983094,  0.890372272514902 ]
    mass: 118.710000
    reduced_to: 33
  - symbol: Sn # 50
    coordinates: [  0.374999999591067,  0.124999998983094,  0.890372272514902 ]
    mass: 118.710000
    reduced_to: 33
  - symbol: Sn # 51
    coordinates: [  0.624999999591067,  0.124999998983094,  0.890372272514902 ]
    mass: 118.710000
    reduced_to: 33
  - symbol: Sn # 52
    coordinates: [  0.874999999591067,  0.124999998983094,  0.890372272514902 ]
    mass: 118.710000
    reduced_to: 33
  - symbol: Sn # 53
    coordinates: [  0.124999999591067,  0.374999998983094,  0.890372272514902 ]
    mass: 118.710000
    reduced_to: 33
  - symbol: Sn # 54
    coordinates: [  0.374999999591067,  0.374999998983094,  0.890372272514902 ]
    mass: 118.710000
    reduced_to: 33
  - symbol: Sn # 55
    coordinates: [  0.624999999591067,  0.374999998983094,  0.890372272514902 ]
    mass: 118.710000
    reduced_to: 33
  - symbol: Sn # 56
    coordinates: [  0.874999999591067,  0.374999998983094,  0.890372272514902 ]
    mass: 118.710000
    reduced_to: 33
  - symbol: Sn # 57
    coordinates: [  0.124999999591067,  0.624999998983094,  0.890372272514902 ]
    mass: 118.710000
    reduced_to: 33
  - symbol: Sn # 58
    coordinates: [  0.374999999591067,  0.624999998983094,  0.890372272514902 ]
    mass: 118.710000
    reduced_to: 33
  - symbol: Sn # 59
    coordinates: [  0.624999999591067,  0.624999998983094,  0.890372272514902 ]
    mass: 118.710000
    reduced_to: 33
  - symbol: Sn # 60
    coordinates: [  0.874999999591067,  0.624999998983094,  0.890372272514902 ]
    mass: 118.710000
    reduced_to: 33
  - symbol: Sn # 61
    coordinates: [  0.124999999591067,  0.874999998983094,  0.890372272514902 ]
    mass: 118.710000
    reduced_to: 33
  - symbol: Sn # 62
    coordinates: [  0.374999999591067,  0.874999998983094,  0.890372272514902 ]
    mass: 118.710000
    reduced_to: 33
  - symbol: Sn # 63
    coordinates: [  0.624999999591067,  0.874999998983094,  0.890372272514902 ]
    mass: 118.710000
    reduced_to: 33
  - symbol: Sn # 64
    coordinates: [  0.874999999591067,  0.874999998983094,  0.890372272514902 ]
    mass: 118.710000
    reduced_to: 33
  - symbol: Sn # 65
    coordinates: [  0.249999999146036,  0.000000000392960,  0.249999999826324 ]
    mass: 118.710000
    reduced_to: 65
  - symbol: Sn # 66
    coordinates: [  0.499999999146036,  0.000000000392960,  0.249999999826324 ]
    mass: 118.710000
    reduced_to: 65
  - symbol: Sn # 67
    coordinates: [  0.749999999146036,  0.000000000392960,  0.249999999826324 ]
    mass: 118.710000
    reduced_to: 65
  - symbol: Sn # 68
    coordinates: [  0.999999999146036,  0.000000000392960,  0.249999999826324 ]
    mass: 118.710000
    reduced_to: 65
  - symbol: Sn # 69
    coordinates: [  0.249999999146036,  0.250000000392960,  0.249999999826324 ]
    mass: 118.710000
    reduced_to: 65
  - symbol: Sn # 70
    coordinates: [  0.499999999146036,  0.250000000392960,  0.249999999826324 ]
    mass: 118.710000
    reduced_to: 65
  - symbol: Sn # 71
    coordinates: [  0.749999999146036,  0.250000000392960,  0.249999999826324 ]
    mass: 118.710000
    reduced_to: 65
  - symbol: Sn # 72
    coordinates: [  0.999999999146036,  0.250000000392960,  0.249999999826324 ]
    mass: 118.710000
    reduced_to: 65
  - symbol: Sn # 73
    coordinates: [  0.249999999146036,  0.500000000392960,  0.249999999826324 ]
    mass: 118.710000
    reduced_to: 65
  - symbol: Sn # 74
    coordinates: [  0.499999999146036,  0.500000000392960,  0.249999999826324 ]
    mass: 118.710000
    reduced_to: 65
  - symbol: Sn # 75
    coordinates: [  0.749999999146036,  0.500000000392960,  0.249999999826324 ]
    mass: 118.710000
    reduced_to: 65
  - symbol: Sn # 76
    coordinates: [  0.999999999146036,  0.500000000392960,  0.249999999826324 ]
    mass: 118.710000
    reduced_to: 65
  - symbol: Sn # 77
    coordinates: [  0.249999999146036,  0.750000000392960,  0.249999999826324 ]
    mass: 118.710000
    reduced_to: 65
  - symbol: Sn # 78
    coordinates: [  0.499999999146036,  0.750000000392960,  0.249999999826324 ]
    mass: 118.710000
    reduced_to: 65
  - symbol: Sn # 79
    coordinates: [  0.749999999146036,  0.750000000392960,  0.249999999826324 ]
    mass: 118.710000
    reduced_to: 65
  - symbol: Sn # 80
    coordinates: [  0.999999999146036,  0.750000000392960,  0.249999999826324 ]
    mass: 118.710000
    reduced_to: 65
  - symbol: Sn # 81
    coordinates: [  0.249999999146036,  0.000000000392960,  0.749999999826324 ]
    mass: 118.710000
    reduced_to: 65
  - symbol: Sn # 82
    coordinates: [  0.499999999146036,  0.000000000392960,  0.749999999826324 ]
    mass: 118.710000
    reduced_to: 65
  - symbol: Sn # 83
    coordinates: [  0.749999999146036,  0.000000000392960,  0.749999999826324 ]
    mass: 118.710000
    reduced_to: 65
  - symbol: Sn # 84
    coordinates: [  0.999999999146036,  0.000000000392960,  0.749999999826324 ]
    mass: 118.710000
    reduced_to: 65
  - symbol: Sn # 85
    coordinates: [  0.249999999146036,  0.250000000392960,  0.749999999826324 ]
    mass: 118.710000
    reduced_to: 65
  - symbol: Sn # 86
    coordinates: [  0.499999999146036,  0.250000000392960,  0.749999999826324 ]
    mass: 118.710000
    reduced_to: 65
  - symbol: Sn # 87
    coordinates: [  0.749999999146036,  0.250000000392960,  0.749999999826324 ]
    mass: 118.710000
    reduced_to: 65
  - symbol: Sn # 88
    coordinates: [  0.999999999146036,  0.250000000392960,  0.749999999826324 ]
    mass: 118.710000
    reduced_to: 65
  - symbol: Sn # 89
    coordinates: [  0.249999999146036,  0.500000000392960,  0.749999999826324 ]
    mass: 118.710000
    reduced_to: 65
  - symbol: Sn # 90
    coordinates: [  0.499999999146036,  0.500000000392960,  0.749999999826324 ]
    mass: 118.710000
    reduced_to: 65
  - symbol: Sn # 91
    coordinates: [  0.749999999146036,  0.500000000392960,  0.749999999826324 ]
    mass: 118.710000
    reduced_to: 65
  - symbol: Sn # 92
    coordinates: [  0.999999999146036,  0.500000000392960,  0.749999999826324 ]
    mass: 118.710000
    reduced_to: 65
  - symbol: Sn # 93
    coordinates: [  0.249999999146036,  0.750000000392960,  0.749999999826324 ]
    mass: 118.710000
    reduced_to: 65
  - symbol: Sn # 94
    coordinates: [  0.499999999146036,  0.750000000392960,  0.749999999826324 ]
    mass: 118.710000
    reduced_to: 65
  - symbol: Sn # 95
    coordinates: [  0.749999999146036,  0.750000000392960,  0.749999999826324 ]
    mass: 118.710000
    reduced_to: 65
  - symbol: Sn # 96
    coordinates: [  0.999999999146036,  0.750000000392960,  0.749999999826324 ]
    mass: 118.710000
    reduced_to: 65
  - symbol: Sn # 97
    coordinates: [  0.125000000052626,  0.124999999722222,  0.109627726127545 ]
    mass: 118.710000
    reduced_to: 97
  - symbol: Sn # 98
    coordinates: [  0.375000000052626,  0.124999999722222,  0.109627726127545 ]
    mass: 118.710000
    reduced_to: 97
  - symbol: Sn # 99
    coordinates: [  0.625000000052626,  0.124999999722222,  0.109627726127545 ]
    mass: 118.710000
    reduced_to: 97
  - symbol: Sn # 100
    coordinates: [  0.875000000052626,  0.124999999722222,  0.109627726127545 ]
    mass: 118.710000
    reduced_to: 97
  - symbol: Sn # 101
    coordinates: [  0.125000000052626,  0.374999999722222,  0.109627726127545 ]
    mass: 118.710000
    reduced_to: 97
  - symbol: Sn # 102
    coordinates: [  0.375000000052626,  0.374999999722222,  0.109627726127545 ]
    mass: 118.710000
    reduced_to: 97
  - symbol: Sn # 103
    coordinates: [  0.625000000052626,  0.374999999722222,  0.109627726127545 ]
    mass: 118.710000
    reduced_to: 97
  - symbol: Sn # 104
    coordinates: [  0.875000000052626,  0.374999999722222,  0.109627726127545 ]
    mass: 118.710000
    reduced_to: 97
  - symbol: Sn # 105
    coordinates: [  0.125000000052626,  0.624999999722222,  0.109627726127545 ]
    mass: 118.710000
    reduced_to: 97
  - symbol: Sn # 106
    coordinates: [  0.375000000052626,  0.624999999722222,  0.109627726127545 ]
    mass: 118.710000
    reduced_to: 97
  - symbol: Sn # 107
    coordinates: [  0.625000000052626,  0.624999999722222,  0.109627726127545 ]
    mass: 118.710000
    reduced_to: 97
  - symbol: Sn # 108
    coordinates: [  0.875000000052626,  0.624999999722222,  0.109627726127545 ]
    mass: 118.710000
    reduced_to: 97
  - symbol: Sn # 109
    coordinates: [  0.125000000052626,  0.874999999722222,  0.109627726127545 ]
    mass: 118.710000
    reduced_to: 97
  - symbol: Sn # 110
    coordinates: [  0.375000000052626,  0.874999999722222,  0.109627726127545 ]
    mass: 118.710000
    reduced_to: 97
  - symbol: Sn # 111
    coordinates: [  0.625000000052626,  0.874999999722222,  0.109627726127545 ]
    mass: 118.710000
    reduced_to: 97
  - symbol: Sn # 112
    coordinates: [  0.875000000052626,  0.874999999722222,  0.109627726127545 ]
    mass: 118.710000
    reduced_to: 97
  - symbol: Sn # 113
    coordinates: [  0.125000000052626,  0.124999999722222,  0.609627726127545 ]
    mass: 118.710000
    reduced_to: 97
  - symbol: Sn # 114
    coordinates: [  0.375000000052626,  0.124999999722222,  0.609627726127545 ]
    mass: 118.710000
    reduced_to: 97
  - symbol: Sn # 115
    coordinates: [  0.625000000052626,  0.124999999722222,  0.609627726127545 ]
    mass: 118.710000
    reduced_to: 97
  - symbol: Sn # 116
    coordinates: [  0.875000000052626,  0.124999999722222,  0.609627726127545 ]
    mass: 118.710000
    reduced_to: 97
  - symbol: Sn # 117
    coordinates: [  0.125000000052626,  0.374999999722222,  0.609627726127545 ]
    mass: 118.710000
    reduced_to: 97
  - symbol: Sn # 118
    coordinates: [  0.375000000052626,  0.374999999722222,  0.609627726127545 ]
    mass: 118.710000
    reduced_to: 97
  - symbol: Sn # 119
    coordinates: [  0.625000000052626,  0.374999999722222,  0.609627726127545 ]
    mass: 118.710000
    reduced_to: 97
  - symbol: Sn # 120
    coordinates: [  0.875000000052626,  0.374999999722222,  0.609627726127545 ]
    mass: 118.710000
    reduced_to: 97
  - symbol: Sn # 121
    coordinates: [  0.125000000052626,  0.624999999722222,  0.609627726127545 ]
    mass: 118.710000
    reduced_to: 97
  - symbol: Sn # 122
    coordinates: [  0.375000000052626,  0.624999999722222,  0.609627726127545 ]
    mass: 118.710000
    reduced_to: 97
  - symbol: Sn # 123
    coordinates: [  0.625000000052626,  0.624999999722222,  0.609627726127545 ]
    mass: 118.710000
    reduced_to: 97
  - symbol: Sn # 124
    coordinates: [  0.875000000052626,  0.624999999722222,  0.609627726127545 ]
    mass: 118.710000
    reduced_to: 97
  - symbol: Sn # 125
    coordinates: [  0.125000000052626,  0.874999999722222,  0.609627726127545 ]
    mass: 118.710000
    reduced_to: 97
  - symbol: Sn # 126
    coordinates: [  0.375000000052626,  0.874999999722222,  0.609627726127545 ]
    mass: 118.710000
    reduced_to: 97
  - symbol: Sn # 127
    coordinates: [  0.625000000052626,  0.874999999722222,  0.609627726127545 ]
    mass: 118.710000
    reduced_to: 97
  - symbol: Sn # 128
    coordinates: [  0.875000000052626,  0.874999999722222,  0.609627726127545 ]
    mass: 118.710000
    reduced_to: 97

displacements:
- atom:    1
  displacement:
    [   0.0058802441400372,  0.0000000002998093,  0.0080884317919828 ]
  forces:
  - [  -0.0099681569263339, -0.0001172784104710, -0.0159453954547644 ]
  - [   0.0009859791025519,  0.0000028794893296, -0.0004336152342148 ]
  - [  -0.0002537453547120, -0.0000008403512766,  0.0000048212968977 ]
  - [   0.0009854529052973,  0.0000033918768167, -0.0004348177462816 ]
  - [  -0.0003254497714806, -0.0000056810677052, -0.0004346109635662 ]
  - [   0.0000379364937544,  0.0000163870863616,  0.0003835605457425 ]
  - [   0.0000112488341983,  0.0000001266598701,  0.0000107650557766 ]
  - [   0.0000324244610965, -0.0000114054419100,  0.0003813542425632 ]
  - [  -0.0000202972914849,  0.0000002887754817,  0.0000050556845963 ]
  - [   0.0000124378129840,  0.0000000487925718,  0.0000110727924039 ]
  - [  -0.0000050449743867, -0.0000005126275937,  0.0000151467975229 ]
  - [   0.0000135898590088, -0.0000004507601261,  0.0000110920518637 ]
  - [  -0.0003247819840908,  0.0000033900141716, -0.0004338938742876 ]
  - [   0.0000314842909575, -0.0000102580524981,  0.0003833543159999 ]
  - [   0.0000108629465103, -0.0000001993030310,  0.0000111013650894 ]
  - [   0.0000389721244574,  0.0000171400606632,  0.0003818403929472 ]
  - [   0.0000020880481770,  0.0000001638377398,  0.0000082477927208 ]
  - [  -0.0000001043081284, -0.0000001332227839, -0.0000153758155648 ]
  - [  -0.0000023525208235,  0.0000004674487286,  0.0000005103647709 ]
  - [   0.0000010579824448,  0.0000003390014172, -0.0000152327120304 ]
  - [   0.0000018833525246, -0.0000003473833203, -0.0000160441049957 ]
  - [   0.0000001820735633, -0.0000007222406566, -0.0000010007788660 ]
  - [  -0.0000013787066564, -0.0000004526227713, -0.0000022876774892 ]
  - [  -0.0000002291053534,  0.0000007082708180, -0.0000010058283806 ]
  - [   0.0000008269830687, -0.0000002069768925,  0.0000009909272194 ]
  - [   0.0000007851049304, -0.0000002695996955, -0.0000019850049284 ]
  - [  -0.0000009983778000, -0.0000002330539246, -0.0000031609088182 ]
  - [   0.0000003296881914, -0.0000006183981895, -0.0000016931444407 ]
  - [   0.0000026840716600, -0.0000001192092896, -0.0000147335231304 ]
  - [   0.0000003636814654, -0.0000000977888703, -0.0000008339266060 ]
  - [  -0.0000021625310183, -0.0000005029141903, -0.0000019352883101 ]
  - [   0.0000009275972843, -0.0000013709068298,  0.0000005140900612 ]
  - [  -0.0000074671106631, -0.0000155653196998,  0.0355800539255142 ]
  - [  -0.0000046917734835, -0.0000085007095549,  0.0356270000338554 ]
  - [  -0.0000028290055525, -0.0000022169886051,  0.0356364995241165 ]
  - [   0.0000152519914991, -0.0000067300989031,  0.0356102436780930 ]
  - [  -0.0000056291451074, -0.0000011735869521,  0.0356297418475151 ]
  - [   0.0000032462392028,  0.0000055426507970,  0.0356429815292358 ]
  - [  -0.0000029976927181,  0.0000014395885728,  0.0356412902474403 ]
  - [   0.0000055803620853, -0.0000009568200312,  0.0356340929865837 ]
  - [  -0.0000047908661145,  0.0000013881394807,  0.0356312096118927 ]
  - [   0.0000026533375603, -0.0000041110888560,  0.0356418490409851 ]
  - [  -0.0000030877968129, -0.0000019783633434,  0.0356416404247284 ]
  - [   0.0000048571109801,  0.0000016656733806,  0.0356344655156136 ]
  - [  -0.0000078344019130,  0.0000160975341714,  0.0355788543820381 ]
  - [  -0.0000044229709601,  0.0000090489211289,  0.0356265679001808 ]
  - [  -0.0000026968748443,  0.0000017401102923,  0.0356351062655449 ]
  - [   0.0000129056215883,  0.0000070409437285,  0.0356108695268631 ]
  - [  -0.0009123265626840, -0.0009656004840508,  0.0365339070558548 ]
  - [   0.0000454059008916,  0.0000210323196370,  0.0355667844414711 ]
  - [  -0.0001475609751651,  0.0000084451367002,  0.0356453731656075 ]
  - [   0.0032035424374044, -0.0031318208202720,  0.0389371141791344 ]
  - [   0.0000085172014224,  0.0000884660839802,  0.0356336981058121 ]
  - [  -0.0000119426877063, -0.0000162738033396,  0.0356459617614746 ]
  - [   0.0000064957503128, -0.0000026522952794,  0.0356577187776566 ]
  - [  -0.0000176367630047,  0.0001011452404782,  0.0355826988816261 ]
  - [   0.0000118217540148, -0.0000915534183150,  0.0356336906552315 ]
  - [  -0.0000123451382024,  0.0000166282898135,  0.0356465354561806 ]
  - [   0.0000075738716987,  0.0000038745392885,  0.0356577187776566 ]
  - [  -0.0000165807305166, -0.0000981827033684,  0.0355824008584023 ]
  - [  -0.0008823591633700,  0.0009348797611892,  0.0365196093916893 ]
  - [   0.0000470322229376, -0.0000212528757402,  0.0355682447552681 ]
  - [  -0.0001433927100152, -0.0000052675313782,  0.0356456264853477 ]
  - [   0.0032600604463369,  0.0032159497495741,  0.0390138849616051 ]
  - [  -0.0000146117527038, -0.0000047249486670, -0.0000032663519960 ]
  - [  -0.0000338309910148, -0.0000002492668330,  0.0000218995846808 ]
  - [   0.0000574782025069,  0.0000018576392904, -0.0000457949936390 ]
  - [  -0.0001875663292594, -0.0000017394122551,  0.0003549138782546 ]
  - [  -0.0000929471570998, -0.0001180409453809, -0.0000907854118850 ]
  - [   0.0000055872806115,  0.0000010298099369,  0.0000055249111028 ]
  - [   0.0000556919258088, -0.0000317904632539, -0.0000334761571139 ]
  - [   0.0000206230615731, -0.0000360023695976, -0.0000238563516177 ]
  - [   0.0000089907553047,  0.0000009958603187,  0.0000132563727675 ]
  - [  -0.0000150955747813, -0.0000007438939065, -0.0000112606212497 ]
  - [   0.0000067281071097, -0.0000003157183528, -0.0000032705720514 ]
  - [  -0.0000003204913810, -0.0000004235553206,  0.0000214362225961 ]
  - [  -0.0000854753889143,  0.0001096176420106, -0.0000791599595686 ]
  - [   0.0000052192481235, -0.0000009900977602,  0.0000052803661674 ]
  - [   0.0000572218559682,  0.0000340505357599, -0.0000364584848285 ]
  - [   0.0000279597006738,  0.0000375894160243, -0.0000275364145637 ]
  - [   0.0000599022023380,  0.0000024245455279, -0.0000468296202598 ]
  - [  -0.0000336206285283, -0.0000001004664227,  0.0000219661742449 ]
  - [  -0.0000223013339564, -0.0000047466019168, -0.0000126981176436 ]
  - [  -0.0001835290458985, -0.0000017140046111,  0.0003550171386451 ]
  - [   0.0000572700519115,  0.0000329695176333, -0.0000349850888597 ]
  - [   0.0000042280007619, -0.0000014281831682,  0.0000061012106016 ]
  - [  -0.0000801479909569,  0.0001029956620187, -0.0000698762014508 ]
  - [   0.0000281625252683,  0.0000415300019085, -0.0000308846501866 ]
  - [   0.0000068510416895, -0.0000003418899723, -0.0000029119692044 ]
  - [  -0.0000145160593092, -0.0000004824250937, -0.0000103896018118 ]
  - [   0.0000078896991909,  0.0000007241033018,  0.0000133011490107 ]
  - [  -0.0000000341970008, -0.0000004584580893,  0.0000218973145820 ]
  - [   0.0000550623517483, -0.0000305875437334, -0.0000323930289596 ]
  - [   0.0000052272807807,  0.0000008750866982,  0.0000057050492615 ]
  - [  -0.0000874131219462, -0.0001107117859647, -0.0000826446339488 ]
  - [   0.0000215698964894, -0.0000389235356124, -0.0000282905384665 ]
  - [   0.0033589769154787,  0.0033255573362112, -0.0321729928255081 ]
  - [  -0.0001442262437195, -0.0000041539315134, -0.0356368348002434 ]
  - [   0.0000440014991909, -0.0000210092221096, -0.0357146486639977 ]
  - [  -0.0008740127668716,  0.0009262496605515, -0.0347838699817657 ]
  - [  -0.0000154008157551, -0.0001002380158752, -0.0357046350836754 ]
  - [   0.0000089192762971,  0.0000046158675104, -0.0356266275048256 ]
  - [  -0.0000138059258461,  0.0000173181761056, -0.0356379225850105 ]
  - [   0.0000113717396744, -0.0000908509828150, -0.0356510877609253 ]
  - [  -0.0000173589396582,  0.0001023830845952, -0.0357040986418724 ]
  - [   0.0000077320728451, -0.0000023550819606, -0.0356263890862465 ]
  - [  -0.0000126543454826, -0.0000155980233103, -0.0356376022100449 ]
  - [   0.0000079162236943,  0.0000890111550689, -0.0356513485312462 ]
  - [   0.0033011697232723, -0.0032398151233792, -0.0322512984275818 ]
  - [  -0.0001491028815508,  0.0000080801546574, -0.0356376171112061 ]
  - [   0.0000430326908827,  0.0000212459090108, -0.0357158929109573 ]
  - [  -0.0009044344187714, -0.0009572957642376, -0.0347693637013435 ]
  - [   0.0000149307306856,  0.0000059148587752, -0.0356734991073608 ]
  - [  -0.0000019047874957,  0.0000010951189324, -0.0356474816799164 ]
  - [  -0.0000053108669817,  0.0000090054381872, -0.0356570333242416 ]
  - [  -0.0000086388827185,  0.0000167859252542, -0.0357062071561813 ]
  - [   0.0000051821407396,  0.0000011248048395, -0.0356500744819641 ]
  - [  -0.0000035103876144, -0.0000020237639546, -0.0356414914131165 ]
  - [   0.0000028710346669, -0.0000035108532757, -0.0356422662734985 ]
  - [  -0.0000061891114456,  0.0000020414590836, -0.0356547459959984 ]
  - [   0.0000053397525335, -0.0000009695068002, -0.0356513112783432 ]
  - [  -0.0000034745316952,  0.0000016710255295, -0.0356421917676926 ]
  - [   0.0000032482203096,  0.0000059490557760, -0.0356408730149269 ]
  - [  -0.0000068001027103, -0.0000010235235095, -0.0356538817286491 ]
  - [   0.0000156387686729, -0.0000068149747676, -0.0356744974851608 ]
  - [  -0.0000012693926692, -0.0000027769128792, -0.0356473773717880 ]
  - [  -0.0000043557956815, -0.0000093039197964, -0.0356558263301849 ]
  - [  -0.0000092891787062, -0.0000166444369825, -0.0357037112116814 ]
- atom:   33
  displacement:
    [   0.0058802441400372,  0.0000000002998093,  0.0080884317919828 ]
  forces:
  - [  -0.0000181328432518, -0.0000274950161838, -0.0000569953117520 ]
  - [   0.0000259447842836, -0.0000173390508280, -0.0000418292838731 ]
  - [   0.0000041350722313, -0.0000028386421036, -0.0000113296264317 ]