# Thermal properties / unit cell (natom)

unit:
  temperature:   K
  free_energy:   kJ/mol
  entropy:       J/K/mol
  heat_capacity: J/K/mol

natom: 12   
cutoff_frequency: 0.00000
num_modes: 199584
num_integrated_modes: 199583

zero_point_energy:      48.0527406

thermal_properties:
- temperature:         0.0000000
  free_energy:        48.0527406
  entropy:             0.0000000
  heat_capacity:       0.0000000
  energy:             48.0527406

- temperature:        10.0000000
  free_energy:        48.0516182
  entropy:             0.3480766
  heat_capacity:       1.0399420
  energy:             48.0550990

- temperature:        20.0000000
  free_energy:        48.0372416
  entropy:             3.1640532
  heat_capacity:       9.5018043
  energy:             48.1005226

- temperature:        30.0000000
  free_energy:        47.9762621
  entropy:             9.5308275
  heat_capacity:      23.2625695
  energy:             48.2621870

- temperature:        40.0000000
  free_energy:        47.8385812
  entropy:            18.3350004
  heat_capacity:      38.9625331
  energy:             48.5719813

- temperature:        50.0000000
  free_energy:        47.6039006
  entropy:            28.8474289
  heat_capacity:      56.1042124
  energy:             49.0462720

- temperature:        60.0000000
  free_energy:        47.2572845
  entropy:            40.6669153
  heat_capacity:      74.2097958
  energy:             49.6972994

- temperature:        70.0000000
  free_energy:        46.7872213
  entropy:            53.4896056
  heat_capacity:      92.6236239
  energy:             50.5314937

- temperature:        80.0000000
  free_energy:        46.1850543
  entropy:            67.0445605
  heat_capacity:     110.6964723
  energy:             51.5486192

- temperature:        90.0000000
  free_energy:        45.4447083
  entropy:            81.0871330
  heat_capacity:     127.9136922
  energy:             52.7425503

- temperature:       100.0000000
  free_energy:        44.5623979
  entropy:            95.4050710
  heat_capacity:     143.9401249
  energy:             54.1029050

- temperature:       110.0000000
  free_energy:        43.5362779
  entropy:           109.8229597
  heat_capacity:     158.6059399
  energy:             55.6168035

- temperature:       120.0000000
  free_energy:        42.3660714
  entropy:           124.2021701
  heat_capacity:     171.8668843
  energy:             57.2703318

- temperature:       130.0000000
  free_energy:        41.0527175
  entropy:           138.4374262
  heat_capacity:     183.7619265
  energy:             59.0495829

- temperature:       140.0000000
  free_energy:        39.5980619
  entropy:           152.4517467
  heat_capacity:     194.3785438
  energy:             60.9413064

- temperature:       150.0000000
  free_energy:        38.0046012
  entropy:           166.1910734
  heat_capacity:     203.8279176
  energy:             62.9332622

- temperature:       160.0000000
  free_energy:        36.2752789
  entropy:           179.6193200
  heat_capacity:     212.2287900
  energy:             65.0143700

- temperature:       170.0000000
  free_energy:        34.4133273
  entropy:           192.7141486
  heat_capacity:     219.6977773
  energy:             67.1747326

- temperature:       180.0000000
  free_energy:        32.4221482
  entropy:           205.4635347
  heat_capacity:     226.3440819
  energy:             69.4055844

- temperature:       190.0000000
  free_energy:        30.3052234
  entropy:           217.8630565
  heat_capacity:     232.2670170
  energy:             71.6992042

- temperature:       200.0000000
  free_energy:        28.0660501
  entropy:           229.9138006
  heat_capacity:     237.5552321
  energy:             74.0488102

- temperature:       210.0000000
  free_energy:        25.7080936
  entropy:           241.6207673
  heat_capacity:     242.2869103
  energy:             76.4484548

- temperature:       220.0000000
  free_energy:        23.2347552
  entropy:           252.9916691
  heat_capacity:     246.5304731
  energy:             78.8929223

- temperature:       230.0000000
  free_energy:        20.6493488
  entropy:           264.0360342
  heat_capacity:     250.3455152
  energy:             81.3776367

- temperature:       240.0000000
  free_energy:        17.9550874
  entropy:           274.7645423
  heat_capacity:     253.7838020
  energy:             83.8985776

- temperature:       250.0000000
  free_energy:        15.1550731
  entropy:           285.1885367
  heat_capacity:     256.8902429
  energy:             86.4522072

- temperature:       260.0000000
  free_energy:        12.2522929
  entropy:           295.3196685
  heat_capacity:     259.7037914
  energy:             89.0354067

- temperature:       270.0000000
  free_energy:         9.2496169
  entropy:           305.1696410
  heat_capacity:     262.2582541
  energy:             91.6454199

- temperature:       280.0000000
  free_energy:         6.1497986
  entropy:           314.7500280
  heat_capacity:     264.5830038
  energy:             94.2798065

- temperature:       290.0000000
  free_energy:         2.9554772
  entropy:           324.0721472
  heat_capacity:     266.7035992
  energy:             96.9363999

- temperature:       300.0000000
  free_energy:        -0.3308200
  entropy:           333.1469752
  heat_capacity:     268.6423203
  energy:             99.6132725

- temperature:       310.0000000
  free_energy:        -3.7066733
  entropy:           341.9850919
  heat_capacity:     270.4186278
  energy:            102.3087052

- temperature:       320.0000000
  free_energy:        -7.1697667
  entropy:           350.5966482
  heat_capacity:     272.0495560
  energy:            105.0211607

- temperature:       330.0000000
  free_energy:       -10.7178835
  entropy:           358.9913491
  heat_capacity:     273.5500486
  energy:            107.7492617

- temperature:       340.0000000
  free_energy:       -14.3489018
  entropy:           367.1784489
  heat_capacity:     274.9332448
  energy:            110.4917709

- temperature:       350.0000000
  free_energy:       -18.0607899
  entropy:           375.1667550
  heat_capacity:     276.2107238
  energy:            113.2475744

- temperature:       360.0000000
  free_energy:       -21.8516021
  entropy:           382.9646370
  heat_capacity:     277.3927136
  energy:            116.0156672

- temperature:       370.0000000
  free_energy:       -25.7194744
  entropy:           390.5800406
  heat_capacity:     278.4882693
  energy:            118.7951406

- temperature:       380.0000000
  free_energy:       -29.6626199
  entropy:           398.0205032
  heat_capacity:     279.5054253
  energy:            121.5851713

- temperature:       390.0000000
  free_energy:       -33.6793252
  entropy:           405.2931715
  heat_capacity:     280.4513270
  energy:            124.3850117

- temperature:       400.0000000
  free_energy:       -37.7679466
  entropy:           412.4048207
  heat_capacity:     281.3323424
  energy:            127.1939817

- temperature:       410.0000000
  free_energy:       -41.9269063
  entropy:           419.3618722
  heat_capacity:     282.1541591
  energy:            130.0114613

- temperature:       420.0000000
  free_energy:       -46.1546891
  entropy:           426.1704133
  heat_capacity:     282.9218676
  energy:            132.8368845

- temperature:       430.0000000
  free_energy:       -50.4498388
  entropy:           432.8362148
  heat_capacity:     283.6400334
  energy:            135.6697336

- temperature:       440.0000000
  free_energy:       -54.8109558
  entropy:           439.3647491
  heat_capacity:     284.3127590
  energy:            138.5095338

- temperature:       450.0000000
  free_energy:       -59.2366936
  entropy:           445.7612071
  heat_capacity:     284.9437384
  energy:            141.3558496

- temperature:       460.0000000
  free_energy:       -63.7257562
  entropy:           452.0305146
  heat_capacity:     285.5363039
  energy:            144.2082805

- temperature:       470.0000000
  free_energy:       -68.2768956
  entropy:           458.1773476
  heat_capacity:     286.0934668
  energy:            147.0664577

- temperature:       480.0000000
  free_energy:       -72.8889097
  entropy:           464.2061472
  heat_capacity:     286.6179535
  energy:            149.9300410

- temperature:       490.0000000
  free_energy:       -77.5606392
  entropy:           470.1211334
  heat_capacity:     287.1122367
  energy:            152.7987161

- temperature:       500.0000000
  free_energy:       -82.2909664
  entropy:           475.9263179
  heat_capacity:     287.5785627
  energy:            155.6721926

- temperature:       510.0000000
  free_energy:       -87.0788123
  entropy:           481.6255164
  heat_capacity:     288.0189753
  energy:            158.5502010

- temperature:       520.0000000
  free_energy:       -91.9231355
  entropy:           487.2223605
  heat_capacity:     288.4353375
  energy:            161.4324919

- temperature:       530.0000000
  free_energy:       -96.8229299
  entropy:           492.7203079
  heat_capacity:     288.8293495
  energy:            164.3188333

- temperature:       540.0000000
  free_energy:      -101.7772230
  entropy:           498.1226530
  heat_capacity:     289.2025659
  energy:            167.2090096

- temperature:       550.0000000
  free_energy:      -106.7850748
  entropy:           503.4325361
  heat_capacity:     289.5564096
  energy:            170.1028201

- temperature:       560.0000000
  free_energy:      -111.8455756
  entropy:           508.6529520
  heat_capacity:     289.8921855
  energy:            173.0000776

- temperature:       570.0000000
  free_energy:      -116.9578451
  entropy:           513.7867591
  heat_capacity:     290.2110911
  energy:            175.9006075

- temperature:       580.0000000
  free_energy:      -122.1210311
  entropy:           518.8366862
  heat_capacity:     290.5142277
  energy:            178.8042468

- temperature:       590.0000000
  free_energy:      -127.3343080
  entropy:           523.8053405
  heat_capacity:     290.8026088
  energy:            181.7108429

- temperature:       600.0000000
  free_energy:      -132.5968754
  entropy:           528.6952139
  heat_capacity:     291.0771686
  energy:            184.6202530

- temperature:       610.0000000
  free_energy:      -137.9079576
  entropy:           533.5086897
  heat_capacity:     291.3387689
  energy:            187.5323431

- temperature:       620.0000000
  free_energy:      -143.2668021
  entropy:           538.2480482
  heat_capacity:     291.5882064
  energy:            190.4469878

- temperature:       630.0000000
  free_energy:      -148.6726788
  entropy:           542.9154729
  heat_capacity:     291.8262175
  energy:            193.3640691

- temperature:       640.0000000
  free_energy:      -154.1248788
  entropy:           547.5130549
  heat_capacity:     292.0534845
  energy:            196.2834763

- temperature:       650.0000000
  free_energy:      -159.6227138
  entropy:           552.0427983
  heat_capacity:     292.2706397
  energy:            199.2051051

- temperature:       660.0000000
  free_energy:      -165.1655150
  entropy:           556.5066249
  heat_capacity:     292.4782700
  energy:            202.1288574

- temperature:       670.0000000
  free_energy:      -170.7526327
  entropy:           560.9063781
  heat_capacity:     292.6769206
  energy:            205.0546406

- temperature:       680.0000000
  free_energy:      -176.3834349
  entropy:           565.2438272
  heat_capacity:     292.8670985
  energy:            207.9823676

- temperature:       690.0000000
  free_energy:      -182.0573072
  entropy:           569.5206712
  heat_capacity:     293.0492758
  energy:            210.9119559

- temperature:       700.0000000
  free_energy:      -187.7736518
  entropy:           573.7385424
  heat_capacity:     293.2238921
  energy:            213.8433279

- temperature:       710.0000000
  free_energy:      -193.5318867
  entropy:           577.8990094
  heat_capacity:     293.3913576
  energy:            216.7764099

- temperature:       720.0000000
  free_energy:      -199.3314456
  entropy:           582.0035807
  heat_capacity:     293.5520552
  energy:            219.7111325

- temperature:       730.0000000
  free_energy:      -205.1717769
  entropy:           586.0537076
  heat_capacity:     293.7063426
  energy:            222.6474297

- temperature:       740.0000000
  free_energy:      -211.0523430
  entropy:           590.0507866
  heat_capacity:     293.8545545
  energy:            225.5852391

- temperature:       750.0000000
  free_energy:      -216.9726203
  entropy:           593.9961624
  heat_capacity:     293.9970039
  energy:            228.5245015

- temperature:       760.0000000
  free_energy:      -222.9320982
  entropy:           597.8911304
  heat_capacity:     294.1339841
  energy:            231.4651609

- temperature:       770.0000000
  free_energy:      -228.9302790
  entropy:           601.7369389
  heat_capacity:     294.2657702
  energy:            234.4071639

- temperature:       780.0000000
  free_energy:      -234.9666771
  entropy:           605.5347910
  heat_capacity:     294.3926202
  energy:            237.3504599

- temperature:       790.0000000
  free_energy:      -241.0408188
  entropy:           609.2858475
  heat_capacity:     294.5147763
  energy:            240.2950007

- temperature:       800.0000000
  free_energy:      -247.1522418
  entropy:           612.9912279
  heat_capacity:     294.6324662
  energy:            243.2407405

- temperature:       810.0000000
  free_energy:      -253.3004948
  entropy:           616.6520131
  heat_capacity:     294.7459039
  energy:            246.1876358

- temperature:       820.0000000
  free_energy:      -259.4851369
  entropy:           620.2692464
  heat_capacity:     294.8552911
  energy:            249.1356451

- temperature:       830.0000000
  free_energy:      -265.7057379
  entropy:           623.8439357
  heat_capacity:     294.9608173
  energy:            252.0847288

- temperature:       840.0000000
  free_energy:      -271.9618771
  entropy:           627.3770550
  heat_capacity:     295.0626614
  energy:            255.0348492

- temperature:       850.0000000
  free_energy:      -278.2531436
  entropy:           630.8695457
  heat_capacity:     295.1609920
  energy:            257.9859703

- temperature:       860.0000000
  free_energy:      -284.5791356
  entropy:           634.3223179
  heat_capacity:     295.2559683
  energy:            260.9380578

- temperature:       870.0000000
  free_energy:      -290.9394605
  entropy:           637.7362522
  heat_capacity:     295.3477404
  energy:            263.8910790

- temperature:       880.0000000
  free_energy:      -297.3337340
  entropy:           641.1122005
  heat_capacity:     295.4364503
  energy:            266.8450024

- temperature:       890.0000000
  free_energy:      -303.7615806
  entropy:           644.4509874
  heat_capacity:     295.5222322
  energy:            269.7997982

- temperature:       900.0000000
  free_energy:      -310.2226326
  entropy:           647.7534114
  heat_capacity:     295.6052132
  energy:            272.7554377

- temperature:       910.0000000
  free_energy:      -316.7165302
  entropy:           651.0202459
  heat_capacity:     295.6855134
  energy:            275.7118936

- temperature:       920.0000000
  free_energy:      -323.2429214
  entropy:           654.2522400
  heat_capacity:     295.7632465
  energy:            278.6691394

- temperature:       930.0000000
  free_energy:      -329.8014613
  entropy:           657.4501200
  heat_capacity:     295.8385206
  energy:            281.6271503

- temperature:       940.0000000
  free_energy:      -336.3918124
  entropy:           660.6145898
  heat_capacity:     295.9114378
  energy:            284.5859020

- temperature:       950.0000000
  free_energy:      -343.0136440
  entropy:           663.7463321
  heat_capacity:     295.9820953
  energy:            287.5453715

- temperature:       960.0000000
  free_energy:      -349.6666321
  entropy:           666.8460092
  heat_capacity:     296.0505851
  energy:            290.5055367

- temperature:       970.0000000
  free_energy:      -356.3504594
  entropy:           669.9142636
  heat_capacity:     296.1169948
  energy:            293.4663763

- temperature:       980.0000000
  free_energy:      -363.0648148
  entropy:           672.9517191
  heat_capacity:     296.1814074
  energy:            296.4278699

- temperature:       990.0000000
  free_energy:      -369.8093932
  entropy:           675.9589810
  heat_capacity:     296.2439019
  energy:            299.3899980

- temperature:      1000.0000000
  free_energy:      -376.5838957
  entropy:           678.9366375
  heat_capacity:     296.3045536
  energy:            302.3527418
