# Thermal properties / unit cell (natom)

unit:
  temperature:   K
  free_energy:   kJ/mol
  entropy:       J/K/mol
  heat_capacity: J/K/mol

natom: 2    
cutoff_frequency: 0.00000
num_modes: 141312
num_integrated_modes: 136810

zero_point_energy:       5.4707818

thermal_properties:
- temperature:         0.0000000
  free_energy:         5.4707818
  entropy:             0.0000000
  heat_capacity:       0.0000000
  energy:              5.4707818

- temperature:        10.0000000
  free_energy:         5.4692974
  entropy:             0.4475493
  heat_capacity:       0.9800431
  energy:              5.4737729

- temperature:        20.0000000
  free_energy:         5.4571956
  entropy:             2.2483490
  heat_capacity:       5.1814036
  energy:              5.5021626

- temperature:        30.0000000
  free_energy:         5.4199611
  entropy:             5.3373709
  heat_capacity:      10.2953830
  energy:              5.5800822

- temperature:        40.0000000
  free_energy:         5.3489429
  entropy:             8.8975383
  heat_capacity:      14.5076311
  energy:              5.7048444

- temperature:        50.0000000
  free_energy:         5.2418174
  entropy:            12.5246870
  heat_capacity:      18.0599803
  energy:              5.8680518

- temperature:        60.0000000
  free_energy:         5.0986091
  entropy:            16.1060717
  heat_capacity:      21.2821047
  energy:              6.0649734

- temperature:        70.0000000
  free_energy:         4.9199431
  entropy:            19.6136253
  heat_capacity:      24.2620628
  energy:              6.2928969

- temperature:        80.0000000
  free_energy:         4.7066270
  entropy:            23.0341022
  heat_capacity:      26.9841629
  energy:              6.5493552

- temperature:        90.0000000
  free_energy:         4.4595896
  entropy:            26.3561003
  heat_capacity:      29.4245412
  energy:              6.8316386

- temperature:       100.0000000
  free_energy:         4.1798648
  entropy:            29.5702517
  heat_capacity:      31.5787531
  energy:              7.1368900

- temperature:       110.0000000
  free_energy:         3.8685651
  entropy:            32.6703619
  heat_capacity:      33.4606789
  energy:              7.4623049

- temperature:       120.0000000
  free_energy:         3.5268475
  entropy:            35.6535841
  heat_capacity:      35.0949527
  energy:              7.8052776

- temperature:       130.0000000
  free_energy:         3.1558832
  entropy:            38.5199339
  heat_capacity:      36.5104253
  energy:              8.1634746

- temperature:       140.0000000
  free_energy:         2.7568314
  entropy:            41.2715868
  heat_capacity:      37.7360316
  energy:              8.5348535

- temperature:       150.0000000
  free_energy:         2.3308217
  entropy:            43.9122033
  heat_capacity:      38.7986183
  energy:              8.9176522

- temperature:       160.0000000
  free_energy:         1.8789422
  entropy:            46.4463760
  heat_capacity:      39.7220317
  energy:              9.3103623

- temperature:       170.0000000
  free_energy:         1.4022320
  entropy:            48.8792123
  heat_capacity:      40.5269185
  energy:              9.7116981

- temperature:       180.0000000
  free_energy:         0.9016779
  entropy:            51.2160370
  heat_capacity:      41.2308868
  energy:             10.1205646

- temperature:       190.0000000
  free_energy:         0.3782135
  entropy:            53.4621886
  heat_capacity:      41.8488242
  energy:             10.5360293

- temperature:       200.0000000
  free_energy:        -0.1672810
  entropy:            55.6228865
  heat_capacity:      42.3932622
  energy:             10.9572963

- temperature:       210.0000000
  free_energy:        -0.7339762
  entropy:            57.7031476
  heat_capacity:      42.8747301
  energy:             11.3836848

- temperature:       220.0000000
  free_energy:        -1.3210918
  entropy:            59.7077382
  heat_capacity:      43.3020760
  energy:             11.8146107

- temperature:       230.0000000
  free_energy:        -1.9278937
  entropy:            61.6411504
  heat_capacity:      43.6827444
  energy:             12.2495709

- temperature:       240.0000000
  free_energy:        -2.5536916
  entropy:            63.5075939
  heat_capacity:      44.0230129
  energy:             12.6881310

- temperature:       250.0000000
  free_energy:        -3.1978355
  entropy:            65.3109990
  heat_capacity:      44.3281887
  energy:             13.1299143

- temperature:       260.0000000
  free_energy:        -3.8597136
  entropy:            67.0550250
  heat_capacity:      44.6027726
  energy:             13.5745929

- temperature:       270.0000000
  free_energy:        -4.5387494
  entropy:            68.7430740
  heat_capacity:      44.8505940
  energy:             14.0218806

- temperature:       280.0000000
  free_energy:        -5.2343991
  entropy:            70.3783056
  heat_capacity:      45.0749217
  energy:             14.4715265

- temperature:       290.0000000
  free_energy:        -5.9461493
  entropy:            71.9636529
  heat_capacity:      45.2785562
  energy:             14.9233101

- temperature:       300.0000000
  free_energy:        -6.6735150
  entropy:            73.5018388
  heat_capacity:      45.4639046
  energy:             15.3770367

- temperature:       310.0000000
  free_energy:        -7.4160373
  entropy:            74.9953918
  heat_capacity:      45.6330431
  energy:             15.8325341

- temperature:       320.0000000
  free_energy:        -8.1732819
  entropy:            76.4466606
  heat_capacity:      45.7877684
  energy:             16.2896495

- temperature:       330.0000000
  free_energy:        -8.9448369
  entropy:            77.8578290
  heat_capacity:      45.9296407
  energy:             16.7482467

- temperature:       340.0000000
  free_energy:        -9.7303116
  entropy:            79.2309283
  heat_capacity:      46.0600189
  energy:             17.2082041

- temperature:       350.0000000
  free_energy:       -10.5293349
  entropy:            80.5678503
  heat_capacity:      46.1800906
  energy:             17.6694127

- temperature:       360.0000000
  free_energy:       -11.3415539
  entropy:            81.8703580
  heat_capacity:      46.2908964
  energy:             18.1317750

- temperature:       370.0000000
  free_energy:       -12.1666328
  entropy:            83.1400963
  heat_capacity:      46.3933512
  energy:             18.5952028

- temperature:       380.0000000
  free_energy:       -13.0042517
  entropy:            84.3786015
  heat_capacity:      46.4882614
  energy:             19.0596169

- temperature:       390.0000000
  free_energy:       -13.8541055
  entropy:            85.5873098
  heat_capacity:      46.5763400
  energy:             19.5249453

- temperature:       400.0000000
  free_energy:       -14.7159031
  entropy:            86.7675652
  heat_capacity:      46.6582186
  energy:             19.9911230

- temperature:       410.0000000
  free_energy:       -15.5893662
  entropy:            87.9206270
  heat_capacity:      46.7344586
  energy:             20.4580909

- temperature:       420.0000000
  free_energy:       -16.4742289
  entropy:            89.0476761
  heat_capacity:      46.8055602
  energy:             20.9257951

- temperature:       430.0000000
  free_energy:       -17.3702367
  entropy:            90.1498213
  heat_capacity:      46.8719698
  energy:             21.3941865

- temperature:       440.0000000
  free_energy:       -18.2771458
  entropy:            91.2281044
  heat_capacity:      46.9340868
  energy:             21.8632202

- temperature:       450.0000000
  free_energy:       -19.1947225
  entropy:            92.2835058
  heat_capacity:      46.9922698
  energy:             22.3328551

- temperature:       460.0000000
  free_energy:       -20.1227427
  entropy:            93.3169483
  heat_capacity:      47.0468409
  energy:             22.8030535

- temperature:       470.0000000
  free_energy:       -21.0609912
  entropy:            94.3293022
  heat_capacity:      47.0980901
  energy:             23.2737808

- temperature:       480.0000000
  free_energy:       -22.0092612
  entropy:            95.3213882
  heat_capacity:      47.1462794
  energy:             23.7450051

- temperature:       490.0000000
  free_energy:       -22.9673540
  entropy:            96.2939816
  heat_capacity:      47.1916455
  energy:             24.2166970

- temperature:       500.0000000
  free_energy:       -23.9350783
  entropy:            97.2478153
  heat_capacity:      47.2344030
  energy:             24.6888293

- temperature:       510.0000000
  free_energy:       -24.9122501
  entropy:            98.1835825
  heat_capacity:      47.2747464
  energy:             25.1613770

- temperature:       520.0000000
  free_energy:       -25.8986919
  entropy:            99.1019399
  heat_capacity:      47.3128529
  energy:             25.6343168

- temperature:       530.0000000
  free_energy:       -26.8942329
  entropy:           100.0035096
  heat_capacity:      47.3488835
  energy:             26.1076272

- temperature:       540.0000000
  free_energy:       -27.8987081
  entropy:           100.8888818
  heat_capacity:      47.3829854
  energy:             26.5812881

- temperature:       550.0000000
  free_energy:       -28.9119584
  entropy:           101.7586170
  heat_capacity:      47.4152928
  energy:             27.0552809

- temperature:       560.0000000
  free_energy:       -29.9338301
  entropy:           102.6132473
  heat_capacity:      47.4459287
  energy:             27.5295883

- temperature:       570.0000000
  free_energy:       -30.9641747
  entropy:           103.4532789
  heat_capacity:      47.4750058
  energy:             28.0041943

- temperature:       580.0000000
  free_energy:       -32.0028487
  entropy:           104.2791936
  heat_capacity:      47.5026273
  energy:             28.4790836

- temperature:       590.0000000
  free_energy:       -33.0497131
  entropy:           105.0914497
  heat_capacity:      47.5288882
  energy:             28.9542423

- temperature:       600.0000000
  free_energy:       -34.1046336
  entropy:           105.8904845
  heat_capacity:      47.5538761
  energy:             29.4296571

- temperature:       610.0000000
  free_energy:       -35.1674801
  entropy:           106.6767146
  heat_capacity:      47.5776714
  energy:             29.9053158

- temperature:       620.0000000
  free_energy:       -36.2381265
  entropy:           107.4505377
  heat_capacity:      47.6003483
  energy:             30.3812068

- temperature:       630.0000000
  free_energy:       -37.3164507
  entropy:           108.2123334
  heat_capacity:      47.6219757
  energy:             30.8573193

- temperature:       640.0000000
  free_energy:       -38.4023343
  entropy:           108.9624646
  heat_capacity:      47.6426168
  energy:             31.3336431

- temperature:       650.0000000
  free_energy:       -39.4956623
  entropy:           109.7012782
  heat_capacity:      47.6623306
  energy:             31.8101685

- temperature:       660.0000000
  free_energy:       -40.5963233
  entropy:           110.4291061
  heat_capacity:      47.6811715
  energy:             32.2868868

- temperature:       670.0000000
  free_energy:       -41.7042089
  entropy:           111.1462658
  heat_capacity:      47.6991900
  energy:             32.7637892

- temperature:       680.0000000
  free_energy:       -42.8192140
  entropy:           111.8530618
  heat_capacity:      47.7164331
  energy:             33.2408680

- temperature:       690.0000000
  free_energy:       -43.9412365
  entropy:           112.5497855
  heat_capacity:      47.7329445
  energy:             33.7181155

- temperature:       700.0000000
  free_energy:       -45.0701771
  entropy:           113.2367166
  heat_capacity:      47.7487648
  energy:             34.1955246

- temperature:       710.0000000
  free_energy:       -46.2059391
  entropy:           113.9141235
  heat_capacity:      47.7639320
  energy:             34.6730886

- temperature:       720.0000000
  free_energy:       -47.3484287
  entropy:           114.5822636
  heat_capacity:      47.7784813
  energy:             35.1508011

- temperature:       730.0000000
  free_energy:       -48.4975543
  entropy:           115.2413844
  heat_capacity:      47.7924457
  energy:             35.6286563

- temperature:       740.0000000
  free_energy:       -49.6532271
  entropy:           115.8917234
  heat_capacity:      47.8058561
  energy:             36.1066482

- temperature:       750.0000000
  free_energy:       -50.8153603
  entropy:           116.5335092
  heat_capacity:      47.8187412
  energy:             36.5847716

- temperature:       760.0000000
  free_energy:       -51.9838695
  entropy:           117.1669617
  heat_capacity:      47.8311281
  energy:             37.0630214

- temperature:       770.0000000
  free_energy:       -53.1586724
  entropy:           117.7922923
  heat_capacity:      47.8430420
  energy:             37.5413926

- temperature:       780.0000000
  free_energy:       -54.3396889
  entropy:           118.4097047
  heat_capacity:      47.8545066
  energy:             38.0198807

- temperature:       790.0000000
  free_energy:       -55.5268408
  entropy:           119.0193951
  heat_capacity:      47.8655442
  energy:             38.4984813

- temperature:       800.0000000
  free_energy:       -56.7200517
  entropy:           119.6215525
  heat_capacity:      47.8761757
  energy:             38.9771902

- temperature:       810.0000000
  free_energy:       -57.9192474
  entropy:           120.2163591
  heat_capacity:      47.8864206
  energy:             39.4560035

- temperature:       820.0000000
  free_energy:       -59.1243550
  entropy:           120.8039908
  heat_capacity:      47.8962974
  energy:             39.9349174

- temperature:       830.0000000
  free_energy:       -60.3353038
  entropy:           121.3846170
  heat_capacity:      47.9058235
  energy:             40.4139283

- temperature:       840.0000000
  free_energy:       -61.5520245
  entropy:           121.9584016
  heat_capacity:      47.9150153
  energy:             40.8930328

- temperature:       850.0000000
  free_energy:       -62.7744496
  entropy:           122.5255025
  heat_capacity:      47.9238882
  energy:             41.3722276

- temperature:       860.0000000
  free_energy:       -64.0025128
  entropy:           123.0860725
  heat_capacity:      47.9324567
  energy:             41.8515095

- temperature:       870.0000000
  free_energy:       -65.2361497
  entropy:           123.6402592
  heat_capacity:      47.9407345
  energy:             42.3308757

- temperature:       880.0000000
  free_energy:       -66.4752972
  entropy:           124.1882051
  heat_capacity:      47.9487347
  energy:             42.8103233

- temperature:       890.0000000
  free_energy:       -67.7198935
  entropy:           124.7300484
  heat_capacity:      47.9564694
  energy:             43.2898495

- temperature:       900.0000000
  free_energy:       -68.9698783
  entropy:           125.2659224
  heat_capacity:      47.9639503
  energy:             43.7694518

- temperature:       910.0000000
  free_energy:       -70.2251925
  entropy:           125.7959563
  heat_capacity:      47.9711883
  energy:             44.2491277

- temperature:       920.0000000
  free_energy:       -71.4857784
  entropy:           126.3202752
  heat_capacity:      47.9781938
  energy:             44.7288748

- temperature:       930.0000000
  free_energy:       -72.7515793
  entropy:           126.8390002
  heat_capacity:      47.9849766
  energy:             45.2086909

- temperature:       940.0000000
  free_energy:       -74.0225401
  entropy:           127.3522487
  heat_capacity:      47.9915461
  energy:             45.6885737

- temperature:       950.0000000
  free_energy:       -75.2986064
  entropy:           127.8601343
  heat_capacity:      47.9979110
  energy:             46.1685211

- temperature:       960.0000000
  free_energy:       -76.5797253
  entropy:           128.3627672
  heat_capacity:      48.0040798
  energy:             46.6485312

- temperature:       970.0000000
  free_energy:       -77.8658446
  entropy:           128.8602543
  heat_capacity:      48.0100604
  energy:             47.1286021

- temperature:       980.0000000
  free_energy:       -79.1569136
  entropy:           129.3526994
  heat_capacity:      48.0158604
  energy:             47.6087318

- temperature:       990.0000000
  free_energy:       -80.4528821
  entropy:           129.8402029
  heat_capacity:      48.0214869
  energy:             48.0889187

- temperature:      1000.0000000
  free_energy:       -81.7537015
  entropy:           130.3228625
  heat_capacity:      48.0269469
  energy:             48.5691610
