# Thermal properties / unit cell (natom)

unit:
  temperature:   K
  free_energy:   kJ/mol
  entropy:       J/K/mol
  heat_capacity: J/K/mol

natom: 8    
cutoff_frequency: 0.00000
num_modes: 179712
num_integrated_modes: 179710

zero_point_energy:      25.7993617

thermal_properties:
- temperature:         0.0000000
  free_energy:        25.7993617
  entropy:             0.0000000
  heat_capacity:       0.0000000
  energy:             25.7993617

- temperature:        10.0000000
  free_energy:        25.7970537
  entropy:             0.9610486
  heat_capacity:       3.2497618
  energy:             25.8066642

- temperature:        20.0000000
  free_energy:        25.7563706
  entropy:             8.6612460
  heat_capacity:      23.8011688
  energy:             25.9295955

- temperature:        30.0000000
  free_energy:        25.6014508
  entropy:            22.9639790
  heat_capacity:      47.4093899
  energy:             26.2903701

- temperature:        40.0000000
  free_energy:        25.2915090
  entropy:            39.0573929
  heat_capacity:      64.1788181
  energy:             26.8538047

- temperature:        50.0000000
  free_energy:        24.8219537
  entropy:            54.7104000
  heat_capacity:      76.0007580
  energy:             27.5574737

- temperature:        60.0000000
  free_energy:        24.2004320
  entropy:            69.4397858
  heat_capacity:      85.6700901
  energy:             28.3668192

- temperature:        70.0000000
  free_energy:        23.4359840
  entropy:            83.3231116
  heat_capacity:      94.6236382
  energy:             29.2686018

- temperature:        80.0000000
  free_energy:        22.5362298
  entropy:            96.5267468
  heat_capacity:     103.2867065
  energy:             30.2583696

- temperature:        90.0000000
  free_energy:        21.5072844
  entropy:           109.1780100
  heat_capacity:     111.6375423
  energy:             31.3333053

- temperature:       100.0000000
  free_energy:        20.3542511
  entropy:           121.3536881
  heat_capacity:     119.5392701
  energy:             32.4896199

- temperature:       110.0000000
  free_energy:        19.0816537
  entropy:           133.0958600
  heat_capacity:     126.8752088
  energy:             33.7221983

- temperature:       120.0000000
  free_energy:        17.6937008
  entropy:           144.4277009
  heat_capacity:     133.5830657
  energy:             35.0250249

- temperature:       130.0000000
  free_energy:        16.1944184
  entropy:           155.3638524
  heat_capacity:     139.6499276
  energy:             36.3917192

- temperature:       140.0000000
  free_energy:        14.5877035
  entropy:           165.9160890
  heat_capacity:     145.0971801
  energy:             37.8159559

- temperature:       150.0000000
  free_energy:        12.8773378
  entropy:           176.0959784
  heat_capacity:     149.9662821
  energy:             39.2917346

- temperature:       160.0000000
  free_energy:        11.0669840
  entropy:           185.9158767
  heat_capacity:     154.3082696
  energy:             40.8135242

- temperature:       170.0000000
  free_energy:         9.1601760
  entropy:           195.3890962
  heat_capacity:     158.1769091
  energy:             42.3763223

- temperature:       180.0000000
  free_energy:         7.1603108
  entropy:           204.5297167
  heat_capacity:     161.6246280
  energy:             43.9756598

- temperature:       190.0000000
  free_energy:         5.0706418
  entropy:           213.3522816
  heat_capacity:     164.7003295
  energy:             45.6075753

- temperature:       200.0000000
  free_energy:         2.8942763
  entropy:           221.8714925
  heat_capacity:     167.4484016
  energy:             47.2685748

- temperature:       210.0000000
  free_energy:         0.6341745
  entropy:           230.1019491
  heat_capacity:     169.9084410
  energy:             48.9555838

- temperature:       220.0000000
  free_energy:        -1.7068479
  entropy:           238.0579468
  heat_capacity:     172.1153792
  energy:             50.6659004

- temperature:       230.0000000
  free_energy:        -4.1261158
  entropy:           245.7533301
  heat_capacity:     174.0998148
  energy:             52.3971501

- temperature:       240.0000000
  free_energy:        -6.6210901
  entropy:           253.2013939
  heat_capacity:     175.8884366
  energy:             54.1472444

- temperature:       250.0000000
  free_energy:        -9.1893616
  entropy:           260.4148221
  heat_capacity:     177.5044681
  energy:             55.9143439

- temperature:       260.0000000
  free_energy:       -11.8286447
  entropy:           267.4056566
  heat_capacity:     178.9680973
  energy:             57.6968260

- temperature:       270.0000000
  free_energy:       -14.5367708
  entropy:           274.1852867
  heat_capacity:     180.2968732
  energy:             59.4932566

- temperature:       280.0000000
  free_energy:       -17.3116823
  entropy:           280.7644549
  heat_capacity:     181.5060610
  energy:             61.3023651

- temperature:       290.0000000
  free_energy:       -20.1514255
  entropy:           287.1532730
  heat_capacity:     182.6089555
  energy:             63.1230237

- temperature:       300.0000000
  free_energy:       -23.0541450
  entropy:           293.3612456
  heat_capacity:     183.6171530
  energy:             64.9542287

- temperature:       310.0000000
  free_energy:       -26.0180774
  entropy:           299.3972981
  heat_capacity:     184.5407870
  energy:             66.7950850

- temperature:       320.0000000
  free_energy:       -29.0415459
  entropy:           305.2698066
  heat_capacity:     185.3887299
  energy:             68.6447923

- temperature:       330.0000000
  free_energy:       -32.1229546
  entropy:           310.9866303
  heat_capacity:     186.1687670
  energy:             70.5026333

- temperature:       340.0000000
  free_energy:       -35.2607841
  entropy:           316.5551421
  heat_capacity:     186.8877441
  energy:             72.3679642

- temperature:       350.0000000
  free_energy:       -38.4535862
  entropy:           321.9822603
  heat_capacity:     187.5516947
  energy:             74.2402049

- temperature:       360.0000000
  free_energy:       -41.6999797
  entropy:           327.2744783
  heat_capacity:     188.1659479
  energy:             76.1188325

- temperature:       370.0000000
  free_energy:       -44.9986465
  entropy:           332.4378931
  heat_capacity:     188.7352218
  energy:             78.0033740

- temperature:       380.0000000
  free_energy:       -48.3483274
  entropy:           337.4782325
  heat_capacity:     189.2637024
  energy:             79.8934010

- temperature:       390.0000000
  free_energy:       -51.7478189
  entropy:           342.4008804
  heat_capacity:     189.7551121
  energy:             81.7885245

- temperature:       400.0000000
  free_energy:       -55.1959696
  entropy:           347.2109008
  heat_capacity:     190.2127681
  energy:             83.6883907

- temperature:       410.0000000
  free_energy:       -58.6916774
  entropy:           351.9130601
  heat_capacity:     190.6396327
  energy:             85.5926773

- temperature:       420.0000000
  free_energy:       -62.2338862
  entropy:           356.5118473
  heat_capacity:     191.0383572
  energy:             87.5010896

- temperature:       430.0000000
  free_energy:       -65.8215839
  entropy:           361.0114940
  heat_capacity:     191.4113188
  energy:             89.4133585

- temperature:       440.0000000
  free_energy:       -69.4537990
  entropy:           365.4159915
  heat_capacity:     191.7606537
  energy:             91.3292373

- temperature:       450.0000000
  free_energy:       -73.1295991
  entropy:           369.7291076
  heat_capacity:     192.0882849
  energy:             93.2484993

- temperature:       460.0000000
  free_energy:       -76.8480884
  entropy:           373.9544018
  heat_capacity:     192.3959470
  energy:             95.1709364

- temperature:       470.0000000
  free_energy:       -80.6084057
  entropy:           378.0952395
  heat_capacity:     192.6852073
  energy:             97.0963569

- temperature:       480.0000000
  free_energy:       -84.4097223
  entropy:           382.1548048
  heat_capacity:     192.9574847
  energy:             99.0245840

- temperature:       490.0000000
  free_energy:       -88.2512409
  entropy:           386.1361127
  heat_capacity:     193.2140659
  energy:            100.9554543

- temperature:       500.0000000
  free_energy:       -92.1321933
  entropy:           390.0420203
  heat_capacity:     193.4561195
  energy:            102.8888169

- temperature:       510.0000000
  free_energy:       -96.0518390
  entropy:           393.8752370
  heat_capacity:     193.6847088
  energy:            104.8245318

- temperature:       520.0000000
  free_energy:      -100.0094643
  entropy:           397.6383340
  heat_capacity:     193.9008028
  energy:            106.7624694

- temperature:       530.0000000
  free_energy:      -104.0043801
  entropy:           401.3337534
  heat_capacity:     194.1052859
  energy:            108.7025092

- temperature:       540.0000000
  free_energy:      -108.0359215
  entropy:           404.9638160
  heat_capacity:     194.2989666
  energy:            110.6445391

- temperature:       550.0000000
  free_energy:      -112.1034460
  entropy:           408.5307290
  heat_capacity:     194.4825847
  energy:            112.5884550

- temperature:       560.0000000
  free_energy:      -116.2063326
  entropy:           412.0365931
  heat_capacity:     194.6568186
  energy:            114.5341595

- temperature:       570.0000000
  free_energy:      -120.3439810
  entropy:           415.4834091
  heat_capacity:     194.8222912
  energy:            116.4815622

- temperature:       580.0000000
  free_energy:      -124.5158103
  entropy:           418.8730834
  heat_capacity:     194.9795747
  energy:            118.4305781

- temperature:       590.0000000
  free_energy:      -128.7212583
  entropy:           422.2074346
  heat_capacity:     195.1291961
  energy:            120.3811281

- temperature:       600.0000000
  free_energy:      -132.9597804
  entropy:           425.4881975
  heat_capacity:     195.2716408
  energy:            122.3331381

- temperature:       610.0000000
  free_energy:      -137.2308491
  entropy:           428.7170289
  heat_capacity:     195.4073569
  energy:            124.2865385

- temperature:       620.0000000
  free_energy:      -141.5339531
  entropy:           431.8955118
  heat_capacity:     195.5367582
  energy:            126.2412642

- temperature:       630.0000000
  free_energy:      -145.8685966
  entropy:           435.0251595
  heat_capacity:     195.6602275
  energy:            128.1972539

- temperature:       640.0000000
  free_energy:      -150.2342984
  entropy:           438.1074196
  heat_capacity:     195.7781193
  energy:            130.1544501

- temperature:       650.0000000
  free_energy:      -154.6305916
  entropy:           441.1436776
  heat_capacity:     195.8907621
  energy:            132.1127988

- temperature:       660.0000000
  free_energy:      -159.0570230
  entropy:           444.1352605
  heat_capacity:     195.9984608
  energy:            134.0722489

- temperature:       670.0000000
  free_energy:      -163.5131522
  entropy:           447.0834398
  heat_capacity:     196.1014986
  energy:            136.0327525

- temperature:       680.0000000
  free_energy:      -167.9985512
  entropy:           449.9894345
  heat_capacity:     196.2001389
  energy:            137.9942642

- temperature:       690.0000000
  free_energy:      -172.5128042
  entropy:           452.8544139
  heat_capacity:     196.2946268
  energy:            139.9567414

- temperature:       700.0000000
  free_energy:      -177.0555065
  entropy:           455.6795003
  heat_capacity:     196.3851908
  energy:            141.9201437

- temperature:       710.0000000
  free_energy:      -181.6262648
  entropy:           458.4657713
  heat_capacity:     196.4720439
  energy:            143.8844329

- temperature:       720.0000000
  free_energy:      -186.2246960
  entropy:           461.2142623
  heat_capacity:     196.5553848
  energy:            145.8495728

- temperature:       730.0000000
  free_energy:      -190.8504274
  entropy:           463.9259683
  heat_capacity:     196.6353995
  energy:            147.8155295

- temperature:       740.0000000
  free_energy:      -195.5030960
  entropy:           466.6018463
  heat_capacity:     196.7122615
  energy:            149.7822703

- temperature:       750.0000000
  free_energy:      -200.1823480
  entropy:           469.2428170
  heat_capacity:     196.7861335
  energy:            151.7497647

- temperature:       760.0000000
  free_energy:      -204.8878389
  entropy:           471.8497664
  heat_capacity:     196.8571678
  energy:            153.7179835

- temperature:       770.0000000
  free_energy:      -209.6192328
  entropy:           474.4235479
  heat_capacity:     196.9255071
  energy:            155.6868991

- temperature:       780.0000000
  free_energy:      -214.3762020
  entropy:           476.9649836
  heat_capacity:     196.9912855
  energy:            157.6564851

- temperature:       790.0000000
  free_energy:      -219.1584273
  entropy:           479.4748658
  heat_capacity:     197.0546286
  energy:            159.6267167

- temperature:       800.0000000
  free_energy:      -223.9655967
  entropy:           481.9539584
  heat_capacity:     197.1156548
  energy:            161.5975700

- temperature:       810.0000000
  free_energy:      -228.7974063
  entropy:           484.4029984
  heat_capacity:     197.1744750
  energy:            163.5690224

- temperature:       820.0000000
  free_energy:      -233.6535589
  entropy:           486.8226968
  heat_capacity:     197.2311938
  energy:            165.5410525

- temperature:       830.0000000
  free_energy:      -238.5337647
  entropy:           489.2137401
  heat_capacity:     197.2859098
  energy:            167.5136396

- temperature:       840.0000000
  free_energy:      -243.4377404
  entropy:           491.5767913
  heat_capacity:     197.3387158
  energy:            169.4867643

- temperature:       850.0000000
  free_energy:      -248.3652093
  entropy:           493.9124908
  heat_capacity:     197.3896993
  energy:            171.4604079

- temperature:       860.0000000
  free_energy:      -253.3159011
  entropy:           496.2214577
  heat_capacity:     197.4389428
  energy:            173.4345525

- temperature:       870.0000000
  free_energy:      -258.2895514
  entropy:           498.5042903
  heat_capacity:     197.4865243
  energy:            175.4091812

- temperature:       880.0000000
  free_energy:      -263.2859017
  entropy:           500.7615675
  heat_capacity:     197.5325175
  energy:            177.3842777

- temperature:       890.0000000
  free_energy:      -268.3046994
  entropy:           502.9938493
  heat_capacity:     197.5769921
  energy:            179.3598265

- temperature:       900.0000000
  free_energy:      -273.3456972
  entropy:           505.2016777
  heat_capacity:     197.6200138
  energy:            181.3358127

- temperature:       910.0000000
  free_energy:      -278.4086532
  entropy:           507.3855773
  heat_capacity:     197.6616452
  energy:            183.3122221

- temperature:       920.0000000
  free_energy:      -283.4933307
  entropy:           509.5460564
  heat_capacity:     197.7019452
  energy:            185.2890412

- temperature:       930.0000000
  free_energy:      -288.5994979
  entropy:           511.6836072
  heat_capacity:     197.7409699
  energy:            187.2662568

- temperature:       940.0000000
  free_energy:      -293.7269280
  entropy:           513.7987069
  heat_capacity:     197.7787723
  energy:            189.2438565

- temperature:       950.0000000
  free_energy:      -298.8753987
  entropy:           515.8918180
  heat_capacity:     197.8154027
  energy:            191.2218283

- temperature:       960.0000000
  free_energy:      -304.0446925
  entropy:           517.9633889
  heat_capacity:     197.8509089
  energy:            193.2001608

- temperature:       970.0000000
  free_energy:      -309.2345962
  entropy:           520.0138547
  heat_capacity:     197.8853364
  energy:            195.1788429

- temperature:       980.0000000
  free_energy:      -314.4449007
  entropy:           522.0436375
  heat_capacity:     197.9187283
  energy:            197.1578641

- temperature:       990.0000000
  free_energy:      -319.6754014
  entropy:           524.0531470
  heat_capacity:     197.9511255
  energy:            199.1372142

- temperature:      1000.0000000
  free_energy:      -324.9258974
  entropy:           526.0427808
  heat_capacity:     197.9825671
  energy:            201.1168834
