# Thermal properties / unit cell (natom)

unit:
  temperature:   K
  free_energy:   kJ/mol
  entropy:       J/K/mol
  heat_capacity: J/K/mol

natom: 4    
cutoff_frequency: 0.00000
num_modes: 141360
num_integrated_modes: 141358

zero_point_energy:      11.5927410

thermal_properties:
- temperature:         0.0000000
  free_energy:        11.5927410
  entropy:             0.0000000
  heat_capacity:       0.0000000
  energy:             11.5927410

- temperature:        10.0000000
  free_energy:        11.5910519
  entropy:             0.6199551
  heat_capacity:       1.7839252
  energy:             11.5972515

- temperature:        20.0000000
  free_energy:        11.5690440
  entropy:             4.4800222
  heat_capacity:      11.7027655
  energy:             11.6586445

- temperature:        30.0000000
  free_energy:        11.4906749
  entropy:            11.5140511
  heat_capacity:      23.3934723
  energy:             11.8360964

- temperature:        40.0000000
  free_energy:        11.3357213
  entropy:            19.5153080
  heat_capacity:      32.1997926
  energy:             12.1163336

- temperature:        50.0000000
  free_energy:        11.1006481
  entropy:            27.4572571
  heat_capacity:      39.0187312
  energy:             12.4735110

- temperature:        60.0000000
  free_energy:        10.7875800
  entropy:            35.1041390
  heat_capacity:      44.9486894
  energy:             12.8938283

- temperature:        70.0000000
  free_energy:        10.3995752
  entropy:            42.4486465
  heat_capacity:      50.4160928
  energy:             13.3709805

- temperature:        80.0000000
  free_energy:         9.9395282
  entropy:            49.5164198
  heat_capacity:      55.4882661
  energy:             13.9008417

- temperature:        90.0000000
  free_energy:         9.4101114
  entropy:            56.3245016
  heat_capacity:      60.1320918
  energy:             14.4793165

- temperature:       100.0000000
  free_energy:         8.8138771
  entropy:            62.8807791
  heat_capacity:      64.3183661
  energy:             15.1019550

- temperature:       110.0000000
  free_energy:         8.1533215
  entropy:            69.1893662
  heat_capacity:      68.0458139
  energy:             15.7641518

- temperature:       120.0000000
  free_energy:         7.4309022
  entropy:            75.2542777
  heat_capacity:      71.3369959
  energy:             16.4614155

- temperature:       130.0000000
  free_energy:         6.6490301
  entropy:            81.0809914
  heat_capacity:      74.2285599
  energy:             17.1895590

- temperature:       140.0000000
  free_energy:         5.8100524
  entropy:            86.6767428
  heat_capacity:      76.7630356
  energy:             17.9447964

- temperature:       150.0000000
  free_energy:         4.9162362
  entropy:            92.0502468
  heat_capacity:      78.9834732
  energy:             18.7237732

- temperature:       160.0000000
  free_energy:         3.9697559
  entropy:            97.2112429
  heat_capacity:      80.9304450
  energy:             19.5235548

- temperature:       170.0000000
  free_energy:         2.9726853
  entropy:           102.1700471
  heat_capacity:      82.6406363
  energy:             20.3415933

- temperature:       180.0000000
  free_energy:         1.9269938
  entropy:           106.9371815
  heat_capacity:      84.1463941
  energy:             21.1756865

- temperature:       190.0000000
  free_energy:         0.8345457
  entropy:           111.5230951
  heat_capacity:      85.4758003
  energy:             22.0239338

- temperature:       200.0000000
  free_energy:        -0.3028980
  entropy:           115.9379677
  heat_capacity:      86.6530057
  energy:             22.8846956

- temperature:       210.0000000
  free_energy:        -1.4836761
  entropy:           120.1915806
  heat_capacity:      87.6986673
  energy:             23.7565558

- temperature:       220.0000000
  free_energy:        -2.7062231
  entropy:           124.2932390
  heat_capacity:      88.6304049
  energy:             24.6382895

- temperature:       230.0000000
  free_energy:        -3.9690638
  entropy:           128.2517312
  heat_capacity:      89.4632335
  energy:             25.5288344

- temperature:       240.0000000
  free_energy:        -5.2708081
  entropy:           132.0753142
  heat_capacity:      90.2099531
  energy:             26.4272673

- temperature:       250.0000000
  free_energy:        -6.6101462
  entropy:           135.7717169
  heat_capacity:      90.8814884
  energy:             27.3327831

- temperature:       260.0000000
  free_energy:        -7.9858426
  entropy:           139.3481552
  heat_capacity:      91.4871810
  energy:             28.2446777

- temperature:       270.0000000
  free_energy:        -9.3967319
  entropy:           142.8113551
  heat_capacity:      92.0350368
  energy:             29.1623340

- temperature:       280.0000000
  free_energy:       -10.8417132
  entropy:           146.1675782
  heat_capacity:      92.5319343
  energy:             30.0852087

- temperature:       290.0000000
  free_energy:       -12.3197463
  entropy:           149.4226516
  heat_capacity:      92.9837999
  energy:             31.0128227

- temperature:       300.0000000
  free_energy:       -13.8298472
  entropy:           152.5819964
  heat_capacity:      93.3957535
  energy:             31.9447518

- temperature:       310.0000000
  free_energy:       -15.3710840
  entropy:           155.6506566
  heat_capacity:      93.7722316
  energy:             32.8806196

- temperature:       320.0000000
  free_energy:       -16.9425737
  entropy:           158.6333273
  heat_capacity:      94.1170897
  energy:             33.8200910

- temperature:       330.0000000
  free_energy:       -18.5434785
  entropy:           161.5343809
  heat_capacity:      94.4336878
  energy:             34.7628672

- temperature:       340.0000000
  free_energy:       -20.1730029
  entropy:           164.3578921
  heat_capacity:      94.7249625
  energy:             35.7086804

- temperature:       350.0000000
  free_energy:       -21.8303906
  entropy:           167.1076606
  heat_capacity:      94.9934881
  energy:             36.6572907

- temperature:       360.0000000
  free_energy:       -23.5149221
  entropy:           169.7872335
  heat_capacity:      95.2415268
  energy:             37.6084819

- temperature:       370.0000000
  free_energy:       -25.2259123
  entropy:           172.3999240
  heat_capacity:      95.4710725
  energy:             38.5620596

- temperature:       380.0000000
  free_energy:       -26.9627080
  entropy:           174.9488306
  heat_capacity:      95.6838869
  energy:             39.5178476

- temperature:       390.0000000
  free_energy:       -28.7246860
  entropy:           177.4368533
  heat_capacity:      95.8815307
  energy:             40.4756868

- temperature:       400.0000000
  free_energy:       -30.5112512
  entropy:           179.8667088
  heat_capacity:      96.0653899
  energy:             41.4354323

- temperature:       410.0000000
  free_energy:       -32.3218348
  entropy:           182.2409452
  heat_capacity:      96.2366982
  energy:             42.3969527

- temperature:       420.0000000
  free_energy:       -34.1558927
  entropy:           184.5619543
  heat_capacity:      96.3965565
  energy:             43.3601281

- temperature:       430.0000000
  free_energy:       -36.0129040
  entropy:           186.8319836
  heat_capacity:      96.5459495
  energy:             44.3248490

- temperature:       440.0000000
  free_energy:       -37.8923695
  entropy:           189.0531470
  heat_capacity:      96.6857594
  energy:             45.2910152

- temperature:       450.0000000
  free_energy:       -39.7938107
  entropy:           191.2274346
  heat_capacity:      96.8167788
  energy:             46.2585349

- temperature:       460.0000000
  free_energy:       -41.7167682
  entropy:           193.3567218
  heat_capacity:      96.9397210
  energy:             47.2273238

- temperature:       470.0000000
  free_energy:       -43.6608010
  entropy:           195.4427778
  heat_capacity:      97.0552292
  energy:             48.1973045

- temperature:       480.0000000
  free_energy:       -45.6254852
  entropy:           197.4872725
  heat_capacity:      97.1638845
  energy:             49.1684056

- temperature:       490.0000000
  free_energy:       -47.6104132
  entropy:           199.4917844
  heat_capacity:      97.2662132
  energy:             50.1405611

- temperature:       500.0000000
  free_energy:       -49.6151926
  entropy:           201.4578060
  heat_capacity:      97.3626921
  energy:             51.1137104

- temperature:       510.0000000
  free_energy:       -51.6394457
  entropy:           203.3867503
  heat_capacity:      97.4537547
  energy:             52.0877969

- temperature:       520.0000000
  free_energy:       -53.6828085
  entropy:           205.2799562
  heat_capacity:      97.5397954
  energy:             53.0627687

- temperature:       530.0000000
  free_energy:       -55.7449300
  entropy:           207.1386930
  heat_capacity:      97.6211735
  energy:             54.0385773

- temperature:       540.0000000
  free_energy:       -57.8254715
  entropy:           208.9641653
  heat_capacity:      97.6982172
  energy:             55.0151777

- temperature:       550.0000000
  free_energy:       -59.9241062
  entropy:           210.7575171
  heat_capacity:      97.7712266
  energy:             55.9925282

- temperature:       560.0000000
  free_energy:       -62.0405184
  entropy:           212.5198360
  heat_capacity:      97.8404761
  energy:             56.9705897

- temperature:       570.0000000
  free_energy:       -64.1744029
  entropy:           214.2521561
  heat_capacity:      97.9062179
  energy:             57.9493260

- temperature:       580.0000000
  free_energy:       -66.3254648
  entropy:           215.9554621
  heat_capacity:      97.9686831
  energy:             58.9287032

- temperature:       590.0000000
  free_energy:       -68.4934186
  entropy:           217.6306917
  heat_capacity:      98.0280844
  energy:             59.9086895

- temperature:       600.0000000
  free_energy:       -70.6779880
  entropy:           219.2787389
  heat_capacity:      98.0846177
  energy:             60.8892553

- temperature:       610.0000000
  free_energy:       -72.8789056
  entropy:           220.9004566
  heat_capacity:      98.1384634
  energy:             61.8703729

- temperature:       620.0000000
  free_energy:       -75.0959121
  entropy:           222.4966586
  heat_capacity:      98.1897882
  energy:             62.8520162

- temperature:       630.0000000
  free_energy:       -77.3287563
  entropy:           224.0681224
  heat_capacity:      98.2387461
  energy:             63.8341608

- temperature:       640.0000000
  free_energy:       -79.5771946
  entropy:           225.6155911
  heat_capacity:      98.2854797
  energy:             64.8167837

- temperature:       650.0000000
  free_energy:       -81.8409905
  entropy:           227.1397753
  heat_capacity:      98.3301207
  energy:             65.7998634

- temperature:       660.0000000
  free_energy:       -84.1199148
  entropy:           228.6413550
  heat_capacity:      98.3727918
  energy:             66.7833795

- temperature:       670.0000000
  free_energy:       -86.4137445
  entropy:           230.1209813
  heat_capacity:      98.4136064
  energy:             67.7673130

- temperature:       680.0000000
  free_energy:       -88.7222633
  entropy:           231.5792781
  heat_capacity:      98.4526701
  energy:             68.7516458

- temperature:       690.0000000
  free_energy:       -91.0452609
  entropy:           233.0168433
  heat_capacity:      98.4900813
  energy:             69.7363609

- temperature:       700.0000000
  free_energy:       -93.3825330
  entropy:           234.4342503
  heat_capacity:      98.5259314
  energy:             70.7214423

- temperature:       710.0000000
  free_energy:       -95.7338806
  entropy:           235.8320496
  heat_capacity:      98.5603055
  energy:             71.7068746

- temperature:       720.0000000
  free_energy:       -98.0991104
  entropy:           237.2107695
  heat_capacity:      98.5932834
  energy:             72.6926437

- temperature:       730.0000000
  free_energy:      -100.4780341
  entropy:           238.5709177
  heat_capacity:      98.6249392
  energy:             73.6787359

- temperature:       740.0000000
  free_energy:      -102.8704684
  entropy:           239.9129821
  heat_capacity:      98.6553423
  energy:             74.6651383

- temperature:       750.0000000
  free_energy:      -105.2762350
  entropy:           241.2374317
  heat_capacity:      98.6845578
  energy:             75.6518388

- temperature:       760.0000000
  free_energy:      -107.6951599
  entropy:           242.5447179
  heat_capacity:      98.7126464
  energy:             76.6388257

- temperature:       770.0000000
  free_energy:      -110.1270736
  entropy:           243.8352750
  heat_capacity:      98.7396652
  energy:             77.6260881

- temperature:       780.0000000
  free_energy:      -112.5718110
  entropy:           245.1095213
  heat_capacity:      98.7656675
  energy:             78.6136156

- temperature:       790.0000000
  free_energy:      -115.0292110
  entropy:           246.3678598
  heat_capacity:      98.7907035
  energy:             79.6013983

- temperature:       800.0000000
  free_energy:      -117.4991165
  entropy:           247.6106789
  heat_capacity:      98.8148204
  energy:             80.5894266

- temperature:       810.0000000
  free_energy:      -119.9813741
  entropy:           248.8383529
  heat_capacity:      98.8380624
  energy:             81.5776918

- temperature:       820.0000000
  free_energy:      -122.4758342
  entropy:           250.0512431
  heat_capacity:      98.8604712
  energy:             82.5661851

- temperature:       830.0000000
  free_energy:      -124.9823508
  entropy:           251.2496980
  heat_capacity:      98.8820859
  energy:             83.5548985

- temperature:       840.0000000
  free_energy:      -127.5007812
  entropy:           252.4340542
  heat_capacity:      98.9029437
  energy:             84.5438243

- temperature:       850.0000000
  free_energy:      -130.0309860
  entropy:           253.6046365
  heat_capacity:      98.9230792
  energy:             85.5329550

- temperature:       860.0000000
  free_energy:      -132.5728291
  entropy:           254.7617589
  heat_capacity:      98.9425253
  energy:             86.5222836

- temperature:       870.0000000
  free_energy:      -135.1261773
  entropy:           255.9057249
  heat_capacity:      98.9613131
  energy:             87.5118033

- temperature:       880.0000000
  free_energy:      -137.6909007
  entropy:           257.0368278
  heat_capacity:      98.9794719
  energy:             88.5015078

- temperature:       890.0000000
  free_energy:      -140.2668720
  entropy:           258.1553514
  heat_capacity:      98.9970293
  energy:             89.4913908

- temperature:       900.0000000
  free_energy:      -142.8539667
  entropy:           259.2615701
  heat_capacity:      99.0140115
  energy:             90.4814464

- temperature:       910.0000000
  free_energy:      -145.4520632
  entropy:           260.3557499
  heat_capacity:      99.0304433
  energy:             91.4716691

- temperature:       920.0000000
  free_energy:      -148.0610424
  entropy:           261.4381478
  heat_capacity:      99.0463482
  energy:             92.4620535

- temperature:       930.0000000
  free_energy:      -150.6807877
  entropy:           262.5090131
  heat_capacity:      99.0617483
  energy:             93.4525944

- temperature:       940.0000000
  free_energy:      -153.3111851
  entropy:           263.5685872
  heat_capacity:      99.0766649
  energy:             94.4432869

- temperature:       950.0000000
  free_energy:      -155.9521226
  entropy:           264.6171040
  heat_capacity:      99.0911178
  energy:             95.4341262

- temperature:       960.0000000
  free_energy:      -158.6034910
  entropy:           265.6547904
  heat_capacity:      99.1051260
  energy:             96.4251078

- temperature:       970.0000000
  free_energy:      -161.2651831
  entropy:           266.6818663
  heat_capacity:      99.1187076
  energy:             97.4162273

- temperature:       980.0000000
  free_energy:      -163.9370937
  entropy:           267.6985452
  heat_capacity:      99.1318796
  energy:             98.4074806

- temperature:       990.0000000
  free_energy:      -166.6191200
  entropy:           268.7050339
  heat_capacity:      99.1446583
  energy:             99.3988636

- temperature:      1000.0000000
  free_energy:      -169.3111611
  entropy:           269.7015335
  heat_capacity:      99.1570592
  energy:            100.3903725
