phonopy:
  version: "2.37.1"
  frequency_unit_conversion_factor: 15.633302
  symmetry_tolerance: 1.00000e-05

space_group:
  type: "P-3m1"
  number: 164
  Hall_symbol: "-P 3 2\""

primitive_matrix:
- [  1.000000000000000, -0.000000000000000,  0.000000000000000 ]
- [  0.000000000000000,  1.000000000000000, -0.000000000000000 ]
- [  0.000000000000000,  0.000000000000000,  1.000000000000000 ]

supercell_matrix:
- [   2,   0,   0 ]
- [   0,   2,   0 ]
- [   0,   0,   4 ]

primitive_cell:
  lattice:
  - [     5.249283136230415,     0.000000000000000,     0.000000000000000 ] # a
  - [    -2.624641381823145,     4.546012375732384,     0.000000000000000 ] # b
  - [     0.000000261286679,     0.000000133532326,     3.142363401071439 ] # c
  points:
  - symbol: Li # 1
    coordinates: [  0.999999998050794,  0.999999988717221,  0.000000000871872 ]
    mass: 6.940000
  - symbol: Sn # 2
    coordinates: [  0.333333331736091,  0.666666679179146,  0.478977252313482 ]
    mass: 118.710000
  - symbol: Sn # 3
    coordinates: [  0.666666670253321,  0.333333332149083,  0.521022746866351 ]
    mass: 118.710000
  reciprocal_lattice: # without 2pi
  - [     0.190502202690883,     0.109986494357134,    -0.000000020513999 ] # a*
  - [     0.000000000000000,     0.219973004327533,    -0.000000009347584 ] # b*
  - [     0.000000000000000,     0.000000000000000,     0.318231812291040 ] # c*

unit_cell:
  lattice:
  - [     5.249283136230415,     0.000000000000000,     0.000000000000000 ] # a
  - [    -2.624641381823145,     4.546012375732384,     0.000000000000000 ] # b
  - [     0.000000261286679,     0.000000133532326,     3.142363401071438 ] # c
  points:
  - symbol: Li # 1
    coordinates: [  0.999999998050794,  0.999999988717221,  0.000000000871872 ]
    mass: 6.940000
    reduced_to: 1
  - symbol: Sn # 2
    coordinates: [  0.333333331736091,  0.666666679179146,  0.478977252313482 ]
    mass: 118.710000
    reduced_to: 2
  - symbol: Sn # 3
    coordinates: [  0.666666670253321,  0.333333332149083,  0.521022746866351 ]
    mass: 118.710000
    reduced_to: 3

supercell:
  lattice:
  - [    10.498566272460829,     0.000000000000000,     0.000000000000000 ] # a
  - [    -5.249282763646289,     9.092024751464768,     0.000000000000000 ] # b
  - [     0.000001045146716,     0.000000534129304,    12.569453604285751 ] # c
  points:
  - symbol: Li # 1
    coordinates: [  0.499999999025397,  0.499999994358610,  0.000000000217968 ]
    mass: 6.940000
    reduced_to: 1
  - symbol: Li # 2
    coordinates: [  0.999999999025397,  0.499999994358610,  0.000000000217968 ]
    mass: 6.940000
    reduced_to: 1
  - symbol: Li # 3
    coordinates: [  0.499999999025397,  0.999999994358610,  0.000000000217968 ]
    mass: 6.940000
    reduced_to: 1
  - symbol: Li # 4
    coordinates: [  0.999999999025397,  0.999999994358610,  0.000000000217968 ]
    mass: 6.940000
    reduced_to: 1
  - symbol: Li # 5
    coordinates: [  0.499999999025397,  0.499999994358610,  0.250000000217968 ]
    mass: 6.940000
    reduced_to: 1
  - symbol: Li # 6
    coordinates: [  0.999999999025397,  0.499999994358610,  0.250000000217968 ]
    mass: 6.940000
    reduced_to: 1
  - symbol: Li # 7
    coordinates: [  0.499999999025397,  0.999999994358610,  0.250000000217968 ]
    mass: 6.940000
    reduced_to: 1
  - symbol: Li # 8
    coordinates: [  0.999999999025397,  0.999999994358610,  0.250000000217968 ]
    mass: 6.940000
    reduced_to: 1
  - symbol: Li # 9
    coordinates: [  0.499999999025397,  0.499999994358610,  0.500000000217968 ]
    mass: 6.940000
    reduced_to: 1
  - symbol: Li # 10
    coordinates: [  0.999999999025397,  0.499999994358610,  0.500000000217968 ]
    mass: 6.940000
    reduced_to: 1
  - symbol: Li # 11
    coordinates: [  0.499999999025397,  0.999999994358610,  0.500000000217968 ]
    mass: 6.940000
    reduced_to: 1
  - symbol: Li # 12
    coordinates: [  0.999999999025397,  0.999999994358610,  0.500000000217968 ]
    mass: 6.940000
    reduced_to: 1
  - symbol: Li # 13
    coordinates: [  0.499999999025397,  0.499999994358610,  0.750000000217968 ]
    mass: 6.940000
    reduced_to: 1
  - symbol: Li # 14
    coordinates: [  0.999999999025397,  0.499999994358610,  0.750000000217968 ]
    mass: 6.940000
    reduced_to: 1
  - symbol: Li # 15
    coordinates: [  0.499999999025397,  0.999999994358610,  0.750000000217968 ]
    mass: 6.940000
    reduced_to: 1
  - symbol: Li # 16
    coordinates: [  0.999999999025397,  0.999999994358610,  0.750000000217968 ]
    mass: 6.940000
    reduced_to: 1
  - symbol: Sn # 17
    coordinates: [  0.166666665868045,  0.333333339589573,  0.119744313078370 ]
    mass: 118.710000
    reduced_to: 17
  - symbol: Sn # 18
    coordinates: [  0.666666665868045,  0.333333339589573,  0.119744313078370 ]
    mass: 118.710000
    reduced_to: 17
  - symbol: Sn # 19
    coordinates: [  0.166666665868045,  0.833333339589573,  0.119744313078370 ]
    mass: 118.710000
    reduced_to: 17
  - symbol: Sn # 20
    coordinates: [  0.666666665868045,  0.833333339589573,  0.119744313078370 ]
    mass: 118.710000
    reduced_to: 17
  - symbol: Sn # 21
    coordinates: [  0.166666665868045,  0.333333339589573,  0.369744313078370 ]
    mass: 118.710000
    reduced_to: 17
  - symbol: Sn # 22
    coordinates: [  0.666666665868045,  0.333333339589573,  0.369744313078370 ]
    mass: 118.710000
    reduced_to: 17
  - symbol: Sn # 23
    coordinates: [  0.166666665868045,  0.833333339589573,  0.369744313078370 ]
    mass: 118.710000
    reduced_to: 17
  - symbol: Sn # 24
    coordinates: [  0.666666665868045,  0.833333339589573,  0.369744313078370 ]
    mass: 118.710000
    reduced_to: 17
  - symbol: Sn # 25
    coordinates: [  0.166666665868045,  0.333333339589573,  0.619744313078370 ]
    mass: 118.710000
    reduced_to: 17
  - symbol: Sn # 26
    coordinates: [  0.666666665868045,  0.333333339589573,  0.619744313078370 ]
    mass: 118.710000
    reduced_to: 17
  - symbol: Sn # 27
    coordinates: [  0.166666665868045,  0.833333339589573,  0.619744313078370 ]
    mass: 118.710000
    reduced_to: 17
  - symbol: Sn # 28
    coordinates: [  0.666666665868045,  0.833333339589573,  0.619744313078370 ]
    mass: 118.710000
    reduced_to: 17
  - symbol: Sn # 29
    coordinates: [  0.166666665868045,  0.333333339589573,  0.869744313078370 ]
    mass: 118.710000
    reduced_to: 17
  - symbol: Sn # 30
    coordinates: [  0.666666665868045,  0.333333339589573,  0.869744313078370 ]
    mass: 118.710000
    reduced_to: 17
  - symbol: Sn # 31
    coordinates: [  0.166666665868045,  0.833333339589573,  0.869744313078370 ]
    mass: 118.710000
    reduced_to: 17
  - symbol: Sn # 32
    coordinates: [  0.666666665868045,  0.833333339589573,  0.869744313078370 ]
    mass: 118.710000
    reduced_to: 17
  - symbol: Sn # 33
    coordinates: [  0.333333335126661,  0.166666666074541,  0.130255686716588 ]
    mass: 118.710000
    reduced_to: 33
  - symbol: Sn # 34
    coordinates: [  0.833333335126661,  0.166666666074541,  0.130255686716588 ]
    mass: 118.710000
    reduced_to: 33
  - symbol: Sn # 35
    coordinates: [  0.333333335126661,  0.666666666074541,  0.130255686716588 ]
    mass: 118.710000
    reduced_to: 33
  - symbol: Sn # 36
    coordinates: [  0.833333335126661,  0.666666666074541,  0.130255686716588 ]
    mass: 118.710000
    reduced_to: 33
  - symbol: Sn # 37
    coordinates: [  0.333333335126661,  0.166666666074541,  0.380255686716588 ]
    mass: 118.710000
    reduced_to: 33
  - symbol: Sn # 38
    coordinates: [  0.833333335126661,  0.166666666074541,  0.380255686716588 ]
    mass: 118.710000
    reduced_to: 33
  - symbol: Sn # 39
    coordinates: [  0.333333335126661,  0.666666666074541,  0.380255686716588 ]
    mass: 118.710000
    reduced_to: 33
  - symbol: Sn # 40
    coordinates: [  0.833333335126661,  0.666666666074541,  0.380255686716588 ]
    mass: 118.710000
    reduced_to: 33
  - symbol: Sn # 41
    coordinates: [  0.333333335126661,  0.166666666074541,  0.630255686716588 ]
    mass: 118.710000
    reduced_to: 33
  - symbol: Sn # 42
    coordinates: [  0.833333335126661,  0.166666666074541,  0.630255686716588 ]
    mass: 118.710000
    reduced_to: 33
  - symbol: Sn # 43
    coordinates: [  0.333333335126661,  0.666666666074541,  0.630255686716588 ]
    mass: 118.710000
    reduced_to: 33
  - symbol: Sn # 44
    coordinates: [  0.833333335126661,  0.666666666074541,  0.630255686716588 ]
    mass: 118.710000
    reduced_to: 33
  - symbol: Sn # 45
    coordinates: [  0.333333335126661,  0.166666666074541,  0.880255686716588 ]
    mass: 118.710000
    reduced_to: 33
  - symbol: Sn # 46
    coordinates: [  0.833333335126661,  0.166666666074541,  0.880255686716588 ]
    mass: 118.710000
    reduced_to: 33
  - symbol: Sn # 47
    coordinates: [  0.333333335126661,  0.666666666074541,  0.880255686716588 ]
    mass: 118.710000
    reduced_to: 33
  - symbol: Sn # 48
    coordinates: [  0.833333335126661,  0.666666666074541,  0.880255686716588 ]
    mass: 118.710000
    reduced_to: 33

displacements:
- atom:    1
  displacement:
    [   0.0064104966880558,  0.0000000003261430,  0.0076749939552045 ]
  forces:
  - [  -0.0050959247164428,  0.0000001322478056, -0.0094405487179756 ]
  - [  -0.0001930474099936,  0.0000735670328140,  0.0000593061558902 ]
  - [  -0.0000699617958162,  0.0000716941431165,  0.0000056023709476 ]
  - [   0.0000582392094657, -0.0001449733972549,  0.0001121694222093 ]
  - [  -0.0000187986406672,  0.0000003650784492,  0.0027947528287768 ]
  - [  -0.0003035418048967,  0.0000007878988981, -0.0000783894211054 ]
  - [  -0.0000634487660136,  0.0001391787081957, -0.0000771442428231 ]
  - [  -0.0000626454129815, -0.0001390855759382, -0.0000768676400185 ]
  - [  -0.0000675314076943,  0.0000004246830940, -0.0001855473965406 ]
  - [   0.0000400899298256, -0.0000019986182451, -0.0000009676441550 ]
  - [   0.0000013487001524, -0.0000206865370274,  0.0000000353902578 ]
  - [  -0.0000017969869077,  0.0000240430235863, -0.0000026961788535 ]
  - [  -0.0000116123592306,  0.0000004116445780,  0.0027521923184395 ]
  - [  -0.0003028988139704,  0.0000001173466444, -0.0000797305256128 ]
  - [  -0.0000615495664533,  0.0001403484493494, -0.0000798394903541 ]
  - [  -0.0000605207169428, -0.0001390688121319, -0.0000799512490630 ]
  - [   0.0004978372016922,  0.0003938144072890,  0.0494189783930779 ]
  - [   0.0012131491675973, -0.0008083009161055,  0.0508870109915733 ]
  - [   0.0001216954551637, -0.0000016617123038,  0.0494934506714344 ]
  - [  -0.0001855781301856,  0.0004041711799800,  0.0501468442380428 ]
  - [  -0.0000237853910221, -0.0000137067399919,  0.0496529787778854 ]
  - [  -0.0000115892335089,  0.0000018319115043,  0.0495160333812237 ]
  - [   0.0000076873693615, -0.0000001206062734,  0.0497249327600002 ]
  - [  -0.0000031783711165,  0.0000065884087235,  0.0495831295847893 ]
  - [  -0.0000415450122091, -0.0000306670553982,  0.0494566895067692 ]
  - [   0.0000103811307781,  0.0000013459939510,  0.0496235080063343 ]
  - [  -0.0000086649806690, -0.0000004223311407,  0.0497051924467087 ]
  - [   0.0000132031836984,  0.0000292754830298,  0.0495395362377167 ]
  - [   0.0010187118314207,  0.0006283782422543,  0.0507550388574600 ]
  - [   0.0004050480201840, -0.0002755038440228,  0.0496821850538254 ]
  - [   0.0001672217622399, -0.0000023627653718,  0.0496261641383171 ]
  - [  -0.0000708838924766, -0.0003601983189583,  0.0502233877778053 ]
  - [  -0.0000742192351026, -0.0003462750464678, -0.0491359196603298 ]
  - [   0.0001676546962699,  0.0000017642374814, -0.0497206673026085 ]
  - [   0.0004208514583297, -0.0002860114036594, -0.0496784225106239 ]
  - [   0.0010326376650482,  0.0006389736663550, -0.0485823042690754 ]
  - [   0.0000132369696075,  0.0000290945918096, -0.0498141944408417 ]
  - [  -0.0000064697646849,  0.0000001846642590, -0.0496483668684959 ]
  - [   0.0000112886264105,  0.0000026230227377, -0.0497318804264069 ]
  - [  -0.0000393758273276, -0.0000278594197880, -0.0499004945158958 ]
  - [  -0.0000051138954404,  0.0000053370299611, -0.0497727766633034 ]
  - [   0.0000099474382296, -0.0000008286604611, -0.0496320053935051 ]
  - [  -0.0000126707200252,  0.0000031977660910, -0.0498427748680115 ]
  - [  -0.0000231811609410, -0.0000104153768916, -0.0497031211853027 ]
  - [  -0.0001822428021114,  0.0004167196166236, -0.0492042377591133 ]
  - [   0.0001225516025443,  0.0000013141197996, -0.0498696342110634 ]
  - [   0.0011876352364197, -0.0007895688759163, -0.0484873205423355 ]
  - [   0.0004812560509890,  0.0003840925346594, -0.0499333292245865 ]
- atom:   17
  displacement:
    [   0.0064104966880558,  0.0000000003261430,  0.0076749939552045 ]
  forces:
  - [  -0.0000237315398408,  0.0000925259664655,  0.0001757107675076 ]
  - [   0.0016962301451713, -0.0010803327895701,  0.0007640775293112 ]
  - [   0.0001229421177413,  0.0000017890706658, -0.0001851944252849 ]
  - [  -0.0001797910081223,  0.0010005766525865,  0.0004734974354506 ]
  - [   0.0013835502322763,  0.0008445894345641,  0.0008036419749260 ]
  - [   0.0000673790782457, -0.0000800238922238,  0.0002901153638959 ]
  - [   0.0001637829991523,  0.0000031422823668, -0.0000499691814184 ]
  - [  -0.0000754095381126, -0.0007539056241512,  0.0005445079877973 ]
  - [  -0.0001145461865235, -0.0000729635357857, -0.0001572398468852 ]
  - [   0.0000859777937876, -0.0000416524708271, -0.0001154541969299 ]
  - [  -0.0000080676700236,  0.0000006463378668,  0.0000282451510429 ]
  - [   0.0000129053369164,  0.0001157224178314, -0.0001368271186948 ]
  - [   0.0000659935176373,  0.0000400692224503, -0.0001013148576021 ]
  - [  -0.0000994780566543,  0.0000562313944101, -0.0000932496041059 ]
  - [   0.0000079729652498,  0.0000002458691597,  0.0000449707731605 ]
  - [  -0.0000029298244044, -0.0000955089926720, -0.0000969059765339 ]
  - [  -0.0201577693223953,  0.0001026666723192,  0.0310915410518646 ]
  - [   0.0002751210704446,  0.0000661830417812,  0.0496706441044807 ]
  - [  -0.0004295296967030, -0.0004064196255058,  0.0496209114789963 ]
  - [  -0.0003098282031715,  0.0003393518272787,  0.0497198291122913 ]
  - [  -0.0002329904673388, -0.0000028179492801,  0.0555969811975956 ]
  - [  -0.0000604422239121, -0.0000656649935991,  0.0497337430715561 ]
  - [   0.0000517214648426,  0.0000640968792140,  0.0497297309339046 ]
  - [  -0.0000580472406000, -0.0000013893004507,  0.0497366413474083 ]
  - [   0.0000935552016017, -0.0000000732252374,  0.0525382794439793 ]
  - [  -0.0000358809193131,  0.0000094620045274,  0.0496234111487865 ]
  - [  -0.0000087751423052,  0.0000153485289047,  0.0496182441711426 ]
  - [   0.0000085542151282, -0.0000252325444308,  0.0496308654546738 ]
  - [  -0.0002007279108511,  0.0000002570450306,  0.0553050376474857 ]
  - [  -0.0000623618252575,  0.0000084154307842,  0.0497326143085957 ]
  - [  -0.0000087842345238,  0.0000294046476483,  0.0497775450348854 ]
  - [   0.0000022342428565, -0.0000371336936951,  0.0496834367513657 ]
  - [   0.0091086365282536, -0.0053712199442089, -0.0499160960316658 ]
  - [   0.0076517881825566,  0.0045083090662956, -0.0509424284100533 ]
  - [  -0.0001765277847880,  0.0007392741972581, -0.0504362732172012 ]
  - [  -0.0001002546196105, -0.0000005336114555, -0.0498057976365089 ]
  - [   0.0010763836326078, -0.0007222779095173, -0.0483710616827011 ]
  - [  -0.0003122811322100, -0.0000813222723082, -0.0495436973869801 ]
  - [  -0.0001736069825711,  0.0008018750231713, -0.0489634834229946 ]
  - [   0.0001846383675002,  0.0000024191315333, -0.0495790019631386 ]
  - [  -0.0000503092524013,  0.0000407528896176, -0.0499610081315041 ]
  - [   0.0000507642980665,  0.0000138213927130, -0.0498802326619625 ]
  - [   0.0000227870077651, -0.0000577946120757, -0.0499210208654404 ]
  - [  -0.0000237319563894,  0.0000006140228948, -0.0497009977698326 ]
  - [  -0.0004019220650662,  0.0001147661751020, -0.0494685620069504 ]
  - [   0.0012078706640750,  0.0008123436127789, -0.0481347292661667 ]
  - [  -0.0002025840221904, -0.0009281709208153, -0.0487973615527153 ]
  - [   0.0001695768733043, -0.0000004766552593, -0.0495763383805752 ]
- atom:   17
  displacement:
    [  -0.0064104966880558, -0.0000000003261430, -0.0076749939552045 ]
  forces:
  - [   0.0000293518824037, -0.0000897021964192, -0.0001732124947011 ]
  - [  -0.0017372387228534,  0.0011145640164614, -0.0007723006419837 ]
  - [  -0.0001208997855429,  0.0000016270205379,  0.0001917369663715 ]
  - [   0.0001885583624244, -0.0010123029351234, -0.0004690685309470 ]
  - [  -0.0013537753839046, -0.0008192379027605, -0.0007974384352565 ]
  - [  -0.0000728475715732,  0.0000845119357109, -0.0002896506339312 ]
  - [  -0.0001692137157079,  0.0000029616057873,  0.0000413078814745 ]
  - [   0.0000688831787556,  0.0007450059056282, -0.0005456879734993 ]
  - [   0.0001145404967247,  0.0000741453841329,  0.0001604352146387 ]
  - [  -0.0000851310178405,  0.0000423435121775,  0.0001166909933090 ]
  - [   0.0000079825113062,  0.0000008270144463, -0.0000270614400506 ]
  - [  -0.0000129200052470, -0.0001156199723482,  0.0001379307359457 ]
  - [  -0.0000630502327112, -0.0000393427908421,  0.0001000789925456 ]
  - [   0.0000984860234894, -0.0000537168234587,  0.0000888910144567 ]
  - [  -0.0000088634851636,  0.0000002216547728, -0.0000468660145998 ]
  - [   0.0000051627866924,  0.0000936128199100,  0.0000948356464505 ]
  - [   0.0200923979282379,  0.0001030038110912,  0.0682342499494553 ]
  - [  -0.0002736197784543, -0.0000710585154593,  0.0496889799833298 ]
  - [   0.0004274761304259,  0.0004055865574628,  0.0497391298413277 ]
  - [   0.0003100004978478, -0.0003351960331202,  0.0496395081281662 ]
  - [   0.0002031637122855, -0.0000026223715395,  0.0440457202494144 ]
  - [   0.0000583943037782,  0.0000649059657007,  0.0496232882142067 ]
  - [  -0.0000556190498173, -0.0000664351973683,  0.0496263019740582 ]
  - [   0.0000613278243691, -0.0000015859259292,  0.0496193170547485 ]
  - [  -0.0000964765131357, -0.0000003759050742,  0.0468221306800842 ]
  - [   0.0000352632778231, -0.0000090888934210,  0.0497343093156815 ]
  - [   0.0000072349384936, -0.0000166885456565,  0.0497419536113739 ]
  - [  -0.0000078332031990,  0.0000250589800999,  0.0497276522219181 ]
  - [   0.0002355124161113,  0.0000004880130291,  0.0437537953257561 ]
  - [   0.0000564055517316, -0.0000008232891560,  0.0496222935616970 ]
  - [   0.0000050701200962, -0.0000312281772494,  0.0495727285742760 ]
  - [  -0.0000004665926099,  0.0000324761494994,  0.0496671497821808 ]
  - [  -0.0089214704930782,  0.0052411351352930, -0.0494870394468307 ]
  - [  -0.0077826767228544, -0.0046049579977989, -0.0483443960547447 ]
  - [   0.0001734369434416, -0.0007601954275742, -0.0489233434200287 ]
  - [   0.0001030261992128, -0.0000003522072802, -0.0495493039488792 ]
  - [  -0.0010579285444692,  0.0007084563258104, -0.0509526133537292 ]
  - [   0.0003214133903384,  0.0000862379893078, -0.0498142763972282 ]
  - [   0.0001704421738395, -0.0007963168900460, -0.0503899902105331 ]
  - [  -0.0001832631969592,  0.0000024362423119, -0.0497821569442749 ]
  - [   0.0000518841516168, -0.0000450769002782, -0.0493890307843685 ]
  - [  -0.0000513669401698, -0.0000176469147846, -0.0494787767529488 ]
  - [  -0.0000242857477133,  0.0000600603161729, -0.0494338311254978 ]
  - [   0.0000237019048654,  0.0000005751423942, -0.0496489480137825 ]
  - [   0.0003952418046538, -0.0001102094611269, -0.0498920306563377 ]
  - [  -0.0012023898307234, -0.0008140499121509, -0.0512382797896862 ]
  - [   0.0002046117733698,  0.0009238100610673, -0.0505616925656796 ]
  - [  -0.0001677164254943, -0.0000002348097041, -0.0497833937406540 ]

force_constants:
  format: "full"
  shape: [ 48, 48 ]
  elements:
  - # (1, 1)
    - [     0.794934540021290,    -0.000000000210787,     0.000000017800558 ]
    - [    -0.000000000210787,     0.794934541074439,     0.000000009211472 ]
    - [     0.000000017800558,     0.000000009211472,     1.230040905092467 ]
  - # (1, 2)
    - [     0.030137975873991,    -0.000000000676782,    -0.000000002513491 ]
    - [    -0.000000002544244,    -0.008842441762999,    -0.009603062438630 ]
    - [    -0.000000002434897,    -0.009603061727667,    -0.007689671932141 ]
  - # (1, 3)
    - [     0.000902662987714,    -0.016879014948866,     0.008316495577598 ]
    - [    -0.016879017490945,     0.020392873635848,     0.004801530799941 ]
    - [     0.008316496511080,     0.004801531105973,    -0.007689674053508 ]
  - # (1, 4)
    - [     0.000902662906281,     0.016879015697596,    -0.008316495174574 ]
    - [     0.016879017035576,     0.020392871544397,     0.004801530179727 ]
    - [    -0.008316495646494,     0.004801528790481,    -0.007689671410207 ]
  - # (1, 5)
    - [     0.002372129662387,    -0.000000000210787,    -0.000000015411205 ]
    - [    -0.000000000210787,     0.002372130715536,    -0.000000007761624 ]
    - [    -0.000000015411205,    -0.000000007761624,    -0.361363773904232 ]
  - # (1, 6)
    - [     0.047316530995029,    -0.000000000507847,    -0.000000002285818 ]
    - [    -0.000000002375309,    -0.002878480593775,    -0.000023316929955 ]
    - [    -0.000000002207225,    -0.000023316218992,     0.010249070715423 ]
  - # (1, 7)
    - [     0.009670271480277,    -0.021735076785710,     0.000020192874583 ]
    - [    -0.021735079342103,     0.034767781220240,     0.000011657301423 ]
    - [     0.000020194090069,     0.000011658164415,     0.010249070585028 ]
  - # (1, 8)
    - [     0.009670272154797,     0.021735077252310,    -0.000020193554249 ]
    - [     0.021735078604604,     0.034767777576846,     0.000011656889241 ]
    - [    -0.000020193402826,     0.000011655534253,     0.010249070468988 ]
  - # (1, 9)
    - [     0.010534627743348,    -0.000000000210787,     0.000000000278230 ]
    - [    -0.000000000210787,     0.010534628796497,     0.000000000256568 ]
    - [     0.000000000278230,     0.000000000256568,     0.024176591002800 ]
  - # (1, 10)
    - [    -0.006171663097626,     0.000000000699611,    -0.000000000475064 ]
    - [    -0.000000001167851,     0.002049335785503,     0.000262009870980 ]
    - [    -0.000000000396470,     0.000262010581943,     0.000158602312810 ]
  - # (1, 11)
    - [    -0.000005913655678,     0.003559796527215,    -0.000226907760174 ]
    - [     0.003559795893122,    -0.004116413446465,    -0.000131006012414 ]
    - [    -0.000226908294749,    -0.000131004303671,     0.000158602239662 ]
  - # (1, 12)
    - [    -0.000005913833714,    -0.003559795759793,     0.000226908317591 ]
    - [    -0.003559796329799,    -0.004116412091046,    -0.000131005068199 ]
    - [     0.000226908326425,    -0.000131004484714,     0.000158602041436 ]
  - # (1, 13)
    - [     0.002372129662387,    -0.000000000210787,    -0.000000015411205 ]
    - [    -0.000000000210787,     0.002372130715536,    -0.000000007761624 ]
    - [    -0.000000015411205,    -0.000000007761624,    -0.361363773904232 ]
  - # (1, 14)
    - [     0.047316530995029,    -0.000000000507847,    -0.000000002285818 ]
    - [    -0.000000002375309,    -0.002878480593775,    -0.000023316929955 ]
    - [    -0.000000002207225,    -0.000023316218992,     0.010249070715423 ]
  - # (1, 15)
    - [     0.009670271480277,    -0.021735076785710,     0.000020192874583 ]
    - [    -0.021735079342103,     0.034767781220240,     0.000011657301423 ]
    - [     0.000020194090069,     0.000011658164415,     0.010249070585028 ]
  - # (1, 16)
    - [     0.009670272154797,     0.021735077252310,    -0.000020193554249 ]
    - [     0.021735078604604,     0.034767777576846,     0.000011656889241 ]
    - [    -0.000020193402826,     0.000011655534253,     0.010249070468988 ]
  - # (1, 17)
    - [    -0.131819044288887,    -0.092680013089447,     0.113603816977249 ]
    - [    -0.092680014095394,    -0.024801372173707,     0.065589188428591 ]
    - [     0.046305830211347,     0.026734683186870,    -0.061409329374919 ]
  - # (1, 18)
    - [    -0.131819038774978,     0.092680013432669,    -0.113603803352386 ]
    - [     0.092680031329058,    -0.024801386976807,     0.065589203624947 ]
    - [    -0.046305824137983,     0.026734675485925,    -0.061409315664490 ]
  - # (1, 19)
    - [    -0.019034700849841,     0.000000002836741,     0.000000004074660 ]
    - [     0.000000004069352,    -0.019034699904563,     0.000000000639151 ]
    - [     0.000000003701736,     0.000000000783269,     0.024531662121776 ]
  - # (1, 20)
    - [     0.028707451942572,    -0.000000006263199,    -0.000000009249939 ]
    - [    -0.000000013053991,    -0.185327882285041,    -0.131178383124617 ]
    - [    -0.000000005491833,    -0.053469358699338,    -0.061409316703410 ]
  - # (1, 21)
    - [     0.002719837169777,     0.001186356122162,    -0.010725034554309 ]
    - [     0.001186354898133,     0.001349952629984,    -0.006192104356561 ]
    - [     0.000762231610526,     0.000440075238647,     0.012397692967089 ]
  - # (1, 22)
    - [     0.002719842268560,    -0.001186357298573,     0.010725032253274 ]
    - [    -0.001186357431310,     0.001349949857228,    -0.006192096559065 ]
    - [    -0.000762231214394,     0.000440075829450,     0.012397691949989 ]
  - # (1, 23)
    - [    -0.001344268916320,     0.000000002002655,     0.000000004535293 ]
    - [     0.000000003235267,    -0.001344267595128,    -0.000000000512158 ]
    - [     0.000000000266359,    -0.000000000168409,    -0.006018169285740 ]
  - # (1, 24)
    - [     0.000665005706176,     0.000000000366697,    -0.000000002069956 ]
    - [    -0.000000002640055,     0.003404783536721,     0.012384199329069 ]
    - [    -0.000000000186732,    -0.000880149163701,     0.012397692315589 ]
  - # (1, 25)
    - [     0.002272288160817,     0.002472912208501,     0.013061502087660 ]
    - [     0.002472911043439,    -0.000583183643351,     0.007541058305406 ]
    - [     0.003308563816243,     0.001910200730758,     0.017930884546910 ]
  - # (1, 26)
    - [     0.002272291106357,    -0.002472913300655,    -0.013061502683608 ]
    - [    -0.002472912369378,    -0.000583186481363,     0.007541067791025 ]
    - [    -0.003308562746582,     0.001910201720598,     0.017930885842533 ]
  - # (1, 27)
    - [     0.001216226303568,     0.000000001881820,     0.000000004335391 ]
    - [     0.000000003114432,     0.001216227679219,    -0.000000000506255 ]
    - [     0.000000000050715,    -0.000000000162139,    -0.003652304720470 ]
  - # (1, 28)
    - [    -0.002010924030762,     0.000000000302981,    -0.000000002295987 ]
    - [    -0.000000003724501,     0.003700025918082,    -0.015082126659624 ]
    - [     0.000000000101709,    -0.003820399924005,     0.017930885968691 ]
  - # (1, 29)
    - [    -0.112217346683361,    -0.071308170709339,    -0.084585827436694 ]
    - [    -0.071308172025196,    -0.029877753722183,    -0.048835650731912 ]
    - [    -0.039855697816786,    -0.023010695881641,    -0.070955403252425 ]
  - # (1, 30)
    - [    -0.112217323659224,     0.071308169151061,     0.084585826873338 ]
    - [     0.071308171617648,    -0.029877763326304,    -0.048835649345738 ]
    - [     0.039855700025340,    -0.023010704050318,    -0.070955414133112 ]
  - # (1, 31)
    - [    -0.026046021109687,     0.000000003164322,     0.000000005093029 ]
    - [     0.000000004396933,    -0.026046020312046,     0.000000000314568 ]
    - [     0.000000003794310,     0.000000000514817,     0.006051689778723 ]
  - # (1, 32)
    - [     0.011292031889941,    -0.000000001115065,    -0.000000004235660 ]
    - [    -0.000000002527986,    -0.153387123887676,     0.097671300464366 ]
    - [    -0.000000003124631,     0.046021400125973,    -0.070955412868598 ]
  - # (1, 33)
    - [     0.011292031889941,    -0.000000001115065,    -0.000000004235660 ]
    - [    -0.000000002527986,    -0.153387123887676,     0.097671300464366 ]
    - [    -0.000000003124631,     0.046021400125973,    -0.070955412868599 ]
  - # (1, 34)
    - [    -0.026046021109687,     0.000000003164322,     0.000000005093029 ]
    - [     0.000000004396933,    -0.026046020312046,     0.000000000314567 ]
    - [     0.000000003794310,     0.000000000514817,     0.006051689778723 ]
  - # (1, 35)
    - [    -0.112217323659224,     0.071308169151061,     0.084585826873337 ]
    - [     0.071308171617648,    -0.029877763326304,    -0.048835649345738 ]
    - [     0.039855700025340,    -0.023010704050318,    -0.070955414133113 ]
  - # (1, 36)
    - [    -0.112217346683361,    -0.071308170709339,    -0.084585827436694 ]
    - [    -0.071308172025196,    -0.029877753722183,    -0.048835650731912 ]
    - [    -0.039855697816786,    -0.023010695881641,    -0.070955403252425 ]
  - # (1, 37)
    - [    -0.002010924030762,     0.000000000302981,    -0.000000002295987 ]
    - [    -0.000000003724501,     0.003700025918082,    -0.015082126659624 ]
    - [     0.000000000101709,    -0.003820399924005,     0.017930885968691 ]
  - # (1, 38)
    - [     0.001216226303568,     0.000000001881820,     0.000000004335391 ]
    - [     0.000000003114432,     0.001216227679219,    -0.000000000506255 ]
    - [     0.000000000050715,    -0.000000000162139,    -0.003652304720470 ]
  - # (1, 39)
    - [     0.002272291106357,    -0.002472913300655,    -0.013061502683608 ]
    - [    -0.002472912369378,    -0.000583186481363,     0.007541067791025 ]
    - [    -0.003308562746582,     0.001910201720598,     0.017930885842532 ]
  - # (1, 40)
    - [     0.002272288160817,     0.002472912208501,     0.013061502087659 ]
    - [     0.002472911043439,    -0.000583183643351,     0.007541058305406 ]
    - [     0.003308563816243,     0.001910200730758,     0.017930884546909 ]
  - # (1, 41)
    - [     0.000665005706176,     0.000000000366697,    -0.000000002069956 ]
    - [    -0.000000002640055,     0.003404783536721,     0.012384199329069 ]
    - [    -0.000000000186732,    -0.000880149163701,     0.012397692315589 ]
  - # (1, 42)
    - [    -0.001344268916320,     0.000000002002655,     0.000000004535293 ]
    - [     0.000000003235267,    -0.001344267595128,    -0.000000000512158 ]