phonopy:
  version: "2.37.1"
  frequency_unit_conversion_factor: 15.633302
  symmetry_tolerance: 1.00000e-05

space_group:
  type: "P1"
  number: 1
  Hall_symbol: "P 1"

primitive_matrix:
- [  1.000000000000000,  0.000000000000000, -0.000000000000000 ]
- [  0.000000000000000, -1.000000000000000,  0.000000000000000 ]
- [  0.000000000000000,  0.000000000000000, -1.000000000000000 ]

supercell_matrix:
- [   3,   0,   0 ]
- [   0,   2,   0 ]
- [   0,   0,   1 ]

primitive_cell:
  lattice:
  - [     4.782609469679258,     0.000000000000000,     0.000000000000000 ] # a
  - [     0.000190077152732,    -6.165781267836318,     0.000000000000000 ] # b
  - [     2.391231441656706,    -1.515213337360970,   -13.352066979767120 ] # c
  points:
  - symbol: Li # 1
    coordinates: [  0.581149391594651,  0.315716095180812,  0.902778424585863 ]
    mass: 6.940000
  - symbol: Li # 2
    coordinates: [  0.697346474728971,  0.005527970978083,  0.670758031297641 ]
    mass: 6.940000
  - symbol: Li # 3
    coordinates: [  0.805968388806666,  0.567810161866913,  0.453144114705534 ]
    mass: 6.940000
  - symbol: Li # 4
    coordinates: [  0.921952489438460,  0.254161334908882,  0.220951105291124 ]
    mass: 6.940000
  - symbol: Li # 5
    coordinates: [  0.368958355602162,  0.910241356398142,  0.327004957867067 ]
    mass: 6.940000
  - symbol: Li # 6
    coordinates: [  0.477353710998351,  0.623729372333933,  0.110127289682676 ]
    mass: 6.940000
  - symbol: Li # 7
    coordinates: [  0.134079241149756,  0.659803484175630,  0.797226343471751 ]
    mass: 6.940000
  - symbol: Li # 8
    coordinates: [  0.025698628699682,  0.945343268664114,  0.013753219438884 ]
    mass: 6.940000
  - symbol: Sn # 9
    coordinates: [  0.584278949855739,  0.818279709131676,  0.896730620704921 ]
    mass: 118.710000
  - symbol: Sn # 10
    coordinates: [  0.371031183068949,  0.416075911905637,  0.322825352556762 ]
    mass: 118.710000
  - symbol: Sn # 11
    coordinates: [  0.251599277811568,  0.787036330313202,  0.562056194234882 ]
    mass: 118.710000
  - symbol: Sn # 12
    coordinates: [  0.815254271956425,  0.069208125219714,  0.434583019226869 ]
    mass: 118.710000
  - symbol: Sn # 13
    coordinates: [  0.251559880072453,  0.287107194189240,  0.562150994305021 ]
    mass: 118.710000
  - symbol: Sn # 14
    coordinates: [  0.687994505153433,  0.503910432680415,  0.689362446261127 ]
    mass: 118.710000
  - symbol: Sn # 15
    coordinates: [  0.027258914664683,  0.452129527487503,  0.010444118842932 ]
    mass: 118.710000
  - symbol: Sn # 16
    coordinates: [  0.132050903631144,  0.154253401479206,  0.801139151166125 ]
    mass: 118.710000
  - symbol: Sn # 17
    coordinates: [  0.475748035343804,  0.116940887634681,  0.113473220575751 ]
    mass: 118.710000
  - symbol: Sn # 18
    coordinates: [  0.918860106291989,  0.751735322352107,  0.227150849196460 ]
    mass: 118.710000
  reciprocal_lattice: # without 2pi
  - [     0.209090875251218,     0.000006445800865,     0.037445506306883 ] # a*
  - [     0.000000000000000,    -0.162185448455086,     0.018405057059510 ] # b*
  - [     0.000000000000000,    -0.000000000000000,    -0.074894771087902 ] # c*

unit_cell:
  lattice:
  - [     4.782609469679258,     0.000000000000000,     0.000000000000000 ] # a
  - [    -0.000190077152732,     6.165781267836318,     0.000000000000000 ] # b
  - [    -2.391231441656706,     1.515213337360970,    13.352066979767120 ] # c
  points:
  - symbol: Li # 1
    coordinates: [  0.581149391594651,  0.684283904819188,  0.097221575414137 ]
    mass: 6.940000
    reduced_to: 1
  - symbol: Li # 2
    coordinates: [  0.697346474728971,  0.994472029021917,  0.329241968702359 ]
    mass: 6.940000
    reduced_to: 2
  - symbol: Li # 3
    coordinates: [  0.805968388806666,  0.432189838133087,  0.546855885294466 ]
    mass: 6.940000
    reduced_to: 3
  - symbol: Li # 4
    coordinates: [  0.921952489438460,  0.745838665091118,  0.779048894708876 ]
    mass: 6.940000
    reduced_to: 4
  - symbol: Li # 5
    coordinates: [  0.368958355602162,  0.089758643601858,  0.672995042132933 ]
    mass: 6.940000
    reduced_to: 5
  - symbol: Li # 6
    coordinates: [  0.477353710998352,  0.376270627666068,  0.889872710317324 ]
    mass: 6.940000
    reduced_to: 6
  - symbol: Li # 7
    coordinates: [  0.134079241149756,  0.340196515824370,  0.202773656528249 ]
    mass: 6.940000
    reduced_to: 7
  - symbol: Li # 8
    coordinates: [  0.025698628699682,  0.054656731335886,  0.986246780561116 ]
    mass: 6.940000
    reduced_to: 8
  - symbol: Sn # 9
    coordinates: [  0.584278949855739,  0.181720290868324,  0.103269379295079 ]
    mass: 118.710000
    reduced_to: 9
  - symbol: Sn # 10
    coordinates: [  0.371031183068949,  0.583924088094363,  0.677174647443238 ]
    mass: 118.710000
    reduced_to: 10
  - symbol: Sn # 11
    coordinates: [  0.251599277811568,  0.212963669686798,  0.437943805765118 ]
    mass: 118.710000
    reduced_to: 11
  - symbol: Sn # 12
    coordinates: [  0.815254271956425,  0.930791874780286,  0.565416980773131 ]
    mass: 118.710000
    reduced_to: 12
  - symbol: Sn # 13
    coordinates: [  0.251559880072453,  0.712892805810760,  0.437849005694979 ]
    mass: 118.710000
    reduced_to: 13
  - symbol: Sn # 14
    coordinates: [  0.687994505153433,  0.496089567319585,  0.310637553738873 ]
    mass: 118.710000
    reduced_to: 14
  - symbol: Sn # 15
    coordinates: [  0.027258914664683,  0.547870472512497,  0.989555881157068 ]
    mass: 118.710000
    reduced_to: 15
  - symbol: Sn # 16
    coordinates: [  0.132050903631144,  0.845746598520794,  0.198860848833875 ]
    mass: 118.710000
    reduced_to: 16
  - symbol: Sn # 17
    coordinates: [  0.475748035343804,  0.883059112365319,  0.886526779424249 ]
    mass: 118.710000
    reduced_to: 17
  - symbol: Sn # 18
    coordinates: [  0.918860106291989,  0.248264677647893,  0.772849150803540 ]
    mass: 118.710000
    reduced_to: 18

supercell:
  lattice:
  - [    14.347828409037774,     0.000000000000000,     0.000000000000000 ] # a
  - [    -0.000380154305465,    12.331562535672637,     0.000000000000000 ] # b
  - [    -2.391231441656706,     1.515213337360970,    13.352066979767120 ] # c
  points:
  - symbol: Li # 1
    coordinates: [  0.193716463864884,  0.342141952409594,  0.097221575414137 ]
    mass: 6.940000
    reduced_to: 1
  - symbol: Li # 2
    coordinates: [  0.527049797198217,  0.342141952409594,  0.097221575414137 ]
    mass: 6.940000
    reduced_to: 1
  - symbol: Li # 3
    coordinates: [  0.860383130531550,  0.342141952409594,  0.097221575414137 ]
    mass: 6.940000
    reduced_to: 1
  - symbol: Li # 4
    coordinates: [  0.193716463864884,  0.842141952409594,  0.097221575414137 ]
    mass: 6.940000
    reduced_to: 1
  - symbol: Li # 5
    coordinates: [  0.527049797198217,  0.842141952409594,  0.097221575414137 ]
    mass: 6.940000
    reduced_to: 1
  - symbol: Li # 6
    coordinates: [  0.860383130531550,  0.842141952409594,  0.097221575414137 ]
    mass: 6.940000
    reduced_to: 1
  - symbol: Li # 7
    coordinates: [  0.232448824909657,  0.497236014510959,  0.329241968702359 ]
    mass: 6.940000
    reduced_to: 7
  - symbol: Li # 8
    coordinates: [  0.565782158242990,  0.497236014510959,  0.329241968702359 ]
    mass: 6.940000
    reduced_to: 7
  - symbol: Li # 9
    coordinates: [  0.899115491576324,  0.497236014510959,  0.329241968702359 ]
    mass: 6.940000
    reduced_to: 7
  - symbol: Li # 10
    coordinates: [  0.232448824909657,  0.997236014510958,  0.329241968702359 ]
    mass: 6.940000
    reduced_to: 7
  - symbol: Li # 11
    coordinates: [  0.565782158242990,  0.997236014510958,  0.329241968702359 ]
    mass: 6.940000
    reduced_to: 7
  - symbol: Li # 12
    coordinates: [  0.899115491576324,  0.997236014510958,  0.329241968702359 ]
    mass: 6.940000
    reduced_to: 7
  - symbol: Li # 13
    coordinates: [  0.268656129602222,  0.216094919066543,  0.546855885294466 ]
    mass: 6.940000
    reduced_to: 13
  - symbol: Li # 14
    coordinates: [  0.601989462935555,  0.216094919066543,  0.546855885294466 ]
    mass: 6.940000
    reduced_to: 13
  - symbol: Li # 15
    coordinates: [  0.935322796268888,  0.216094919066543,  0.546855885294466 ]
    mass: 6.940000
    reduced_to: 13
  - symbol: Li # 16
    coordinates: [  0.268656129602222,  0.716094919066543,  0.546855885294466 ]
    mass: 6.940000
    reduced_to: 13
  - symbol: Li # 17
    coordinates: [  0.601989462935555,  0.716094919066543,  0.546855885294466 ]
    mass: 6.940000
    reduced_to: 13
  - symbol: Li # 18
    coordinates: [  0.935322796268888,  0.716094919066543,  0.546855885294466 ]
    mass: 6.940000
    reduced_to: 13
  - symbol: Li # 19
    coordinates: [  0.307317496479487,  0.372919332545559,  0.779048894708876 ]
    mass: 6.940000
    reduced_to: 19
  - symbol: Li # 20
    coordinates: [  0.640650829812820,  0.372919332545559,  0.779048894708876 ]
    mass: 6.940000
    reduced_to: 19
  - symbol: Li # 21
    coordinates: [  0.973984163146153,  0.372919332545559,  0.779048894708876 ]
    mass: 6.940000
    reduced_to: 19
  - symbol: Li # 22
    coordinates: [  0.307317496479487,  0.872919332545559,  0.779048894708876 ]
    mass: 6.940000
    reduced_to: 19
  - symbol: Li # 23
    coordinates: [  0.640650829812820,  0.872919332545559,  0.779048894708876 ]
    mass: 6.940000
    reduced_to: 19
  - symbol: Li # 24
    coordinates: [  0.973984163146153,  0.872919332545559,  0.779048894708876 ]
    mass: 6.940000
    reduced_to: 19
  - symbol: Li # 25
    coordinates: [  0.122986118534054,  0.044879321800929,  0.672995042132933 ]
    mass: 6.940000
    reduced_to: 25
  - symbol: Li # 26
    coordinates: [  0.456319451867387,  0.044879321800929,  0.672995042132933 ]
    mass: 6.940000
    reduced_to: 25
  - symbol: Li # 27
    coordinates: [  0.789652785200721,  0.044879321800929,  0.672995042132933 ]
    mass: 6.940000
    reduced_to: 25
  - symbol: Li # 28
    coordinates: [  0.122986118534054,  0.544879321800929,  0.672995042132933 ]
    mass: 6.940000
    reduced_to: 25
  - symbol: Li # 29
    coordinates: [  0.456319451867387,  0.544879321800929,  0.672995042132933 ]
    mass: 6.940000
    reduced_to: 25
  - symbol: Li # 30
    coordinates: [  0.789652785200721,  0.544879321800929,  0.672995042132933 ]
    mass: 6.940000
    reduced_to: 25
  - symbol: Li # 31
    coordinates: [  0.159117903666117,  0.188135313833034,  0.889872710317324 ]
    mass: 6.940000
    reduced_to: 31
  - symbol: Li # 32
    coordinates: [  0.492451236999451,  0.188135313833034,  0.889872710317324 ]
    mass: 6.940000
    reduced_to: 31
  - symbol: Li # 33
    coordinates: [  0.825784570332784,  0.188135313833034,  0.889872710317324 ]
    mass: 6.940000
    reduced_to: 31
  - symbol: Li # 34
    coordinates: [  0.159117903666117,  0.688135313833034,  0.889872710317324 ]
    mass: 6.940000
    reduced_to: 31
  - symbol: Li # 35
    coordinates: [  0.492451236999451,  0.688135313833034,  0.889872710317324 ]
    mass: 6.940000
    reduced_to: 31
  - symbol: Li # 36
    coordinates: [  0.825784570332784,  0.688135313833034,  0.889872710317324 ]
    mass: 6.940000
    reduced_to: 31
  - symbol: Li # 37
    coordinates: [  0.044693080383252,  0.170098257912185,  0.202773656528249 ]
    mass: 6.940000
    reduced_to: 37
  - symbol: Li # 38
    coordinates: [  0.378026413716585,  0.170098257912185,  0.202773656528249 ]
    mass: 6.940000
    reduced_to: 37
  - symbol: Li # 39
    coordinates: [  0.711359747049919,  0.170098257912185,  0.202773656528249 ]
    mass: 6.940000
    reduced_to: 37
  - symbol: Li # 40
    coordinates: [  0.044693080383252,  0.670098257912185,  0.202773656528249 ]
    mass: 6.940000
    reduced_to: 37
  - symbol: Li # 41
    coordinates: [  0.378026413716585,  0.670098257912185,  0.202773656528249 ]
    mass: 6.940000
    reduced_to: 37
  - symbol: Li # 42
    coordinates: [  0.711359747049919,  0.670098257912185,  0.202773656528249 ]
    mass: 6.940000
    reduced_to: 37
  - symbol: Li # 43
    coordinates: [  0.008566209566561,  0.027328365667943,  0.986246780561116 ]
    mass: 6.940000
    reduced_to: 43
  - symbol: Li # 44
    coordinates: [  0.341899542899894,  0.027328365667943,  0.986246780561116 ]
    mass: 6.940000
    reduced_to: 43
  - symbol: Li # 45
    coordinates: [  0.675232876233227,  0.027328365667943,  0.986246780561116 ]
    mass: 6.940000
    reduced_to: 43
  - symbol: Li # 46
    coordinates: [  0.008566209566561,  0.527328365667943,  0.986246780561116 ]
    mass: 6.940000
    reduced_to: 43
  - symbol: Li # 47
    coordinates: [  0.341899542899894,  0.527328365667943,  0.986246780561116 ]
    mass: 6.940000
    reduced_to: 43
  - symbol: Li # 48
    coordinates: [  0.675232876233227,  0.527328365667943,  0.986246780561116 ]
    mass: 6.940000
    reduced_to: 43
  - symbol: Sn # 49
    coordinates: [  0.194759649951913,  0.090860145434162,  0.103269379295079 ]
    mass: 118.710000
    reduced_to: 49
  - symbol: Sn # 50
    coordinates: [  0.528092983285246,  0.090860145434162,  0.103269379295079 ]
    mass: 118.710000
    reduced_to: 49
  - symbol: Sn # 51
    coordinates: [  0.861426316618580,  0.090860145434162,  0.103269379295079 ]
    mass: 118.710000
    reduced_to: 49
  - symbol: Sn # 52
    coordinates: [  0.194759649951913,  0.590860145434162,  0.103269379295079 ]
    mass: 118.710000
    reduced_to: 49
  - symbol: Sn # 53
    coordinates: [  0.528092983285246,  0.590860145434162,  0.103269379295079 ]
    mass: 118.710000
    reduced_to: 49
  - symbol: Sn # 54
    coordinates: [  0.861426316618580,  0.590860145434162,  0.103269379295079 ]
    mass: 118.710000
    reduced_to: 49
  - symbol: Sn # 55
    coordinates: [  0.123677061022983,  0.291962044047182,  0.677174647443238 ]
    mass: 118.710000
    reduced_to: 55
  - symbol: Sn # 56
    coordinates: [  0.457010394356316,  0.291962044047182,  0.677174647443238 ]
    mass: 118.710000
    reduced_to: 55
  - symbol: Sn # 57
    coordinates: [  0.790343727689650,  0.291962044047182,  0.677174647443238 ]
    mass: 118.710000
    reduced_to: 55
  - symbol: Sn # 58
    coordinates: [  0.123677061022983,  0.791962044047182,  0.677174647443238 ]
    mass: 118.710000
    reduced_to: 55
  - symbol: Sn # 59
    coordinates: [  0.457010394356316,  0.791962044047182,  0.677174647443238 ]
    mass: 118.710000
    reduced_to: 55
  - symbol: Sn # 60
    coordinates: [  0.790343727689650,  0.791962044047182,  0.677174647443238 ]
    mass: 118.710000
    reduced_to: 55
  - symbol: Sn # 61
    coordinates: [  0.083866425937189,  0.106481834843399,  0.437943805765118 ]
    mass: 118.710000
    reduced_to: 61
  - symbol: Sn # 62
    coordinates: [  0.417199759270523,  0.106481834843399,  0.437943805765118 ]
    mass: 118.710000
    reduced_to: 61
  - symbol: Sn # 63
    coordinates: [  0.750533092603856,  0.106481834843399,  0.437943805765118 ]
    mass: 118.710000
    reduced_to: 61
  - symbol: Sn # 64
    coordinates: [  0.083866425937189,  0.606481834843399,  0.437943805765118 ]
    mass: 118.710000
    reduced_to: 61
  - symbol: Sn # 65
    coordinates: [  0.417199759270523,  0.606481834843399,  0.437943805765118 ]
    mass: 118.710000
    reduced_to: 61
  - symbol: Sn # 66
    coordinates: [  0.750533092603856,  0.606481834843399,  0.437943805765118 ]
    mass: 118.710000
    reduced_to: 61
  - symbol: Sn # 67
    coordinates: [  0.271751423985475,  0.465395937390143,  0.565416980773131 ]
    mass: 118.710000
    reduced_to: 67
  - symbol: Sn # 68
    coordinates: [  0.605084757318808,  0.465395937390143,  0.565416980773131 ]
    mass: 118.710000
    reduced_to: 67
  - symbol: Sn # 69
    coordinates: [  0.938418090652142,  0.465395937390143,  0.565416980773131 ]
    mass: 118.710000
    reduced_to: 67
  - symbol: Sn # 70
    coordinates: [  0.271751423985475,  0.965395937390143,  0.565416980773131 ]
    mass: 118.710000
    reduced_to: 67
  - symbol: Sn # 71
    coordinates: [  0.605084757318808,  0.965395937390143,  0.565416980773131 ]
    mass: 118.710000
    reduced_to: 67
  - symbol: Sn # 72
    coordinates: [  0.938418090652142,  0.965395937390143,  0.565416980773131 ]
    mass: 118.710000
    reduced_to: 67
  - symbol: Sn # 73
    coordinates: [  0.083853293357484,  0.356446402905380,  0.437849005694979 ]
    mass: 118.710000
    reduced_to: 73
  - symbol: Sn # 74
    coordinates: [  0.417186626690818,  0.356446402905380,  0.437849005694979 ]
    mass: 118.710000
    reduced_to: 73
  - symbol: Sn # 75
    coordinates: [  0.750519960024151,  0.356446402905380,  0.437849005694979 ]
    mass: 118.710000
    reduced_to: 73
  - symbol: Sn # 76
    coordinates: [  0.083853293357484,  0.856446402905380,  0.437849005694979 ]
    mass: 118.710000
    reduced_to: 73
  - symbol: Sn # 77
    coordinates: [  0.417186626690818,  0.856446402905380,  0.437849005694979 ]
    mass: 118.710000
    reduced_to: 73
  - symbol: Sn # 78
    coordinates: [  0.750519960024151,  0.856446402905380,  0.437849005694979 ]
    mass: 118.710000
    reduced_to: 73
  - symbol: Sn # 79
    coordinates: [  0.229331501717811,  0.248044783659792,  0.310637553738873 ]
    mass: 118.710000
    reduced_to: 79
  - symbol: Sn # 80
    coordinates: [  0.562664835051144,  0.248044783659792,  0.310637553738873 ]
    mass: 118.710000
    reduced_to: 79
  - symbol: Sn # 81
    coordinates: [  0.895998168384478,  0.248044783659792,  0.310637553738873 ]
    mass: 118.710000
    reduced_to: 79
  - symbol: Sn # 82
    coordinates: [  0.229331501717811,  0.748044783659792,  0.310637553738873 ]
    mass: 118.710000
    reduced_to: 79
  - symbol: Sn # 83
    coordinates: [  0.562664835051144,  0.748044783659792,  0.310637553738873 ]
    mass: 118.710000
    reduced_to: 79
  - symbol: Sn # 84
    coordinates: [  0.895998168384478,  0.748044783659792,  0.310637553738873 ]
    mass: 118.710000
    reduced_to: 79
  - symbol: Sn # 85
    coordinates: [  0.009086304888228,  0.273935236256249,  0.989555881157068 ]
    mass: 118.710000
    reduced_to: 85
  - symbol: Sn # 86
    coordinates: [  0.342419638221561,  0.273935236256249,  0.989555881157068 ]
    mass: 118.710000
    reduced_to: 85
  - symbol: Sn # 87
    coordinates: [  0.675752971554894,  0.273935236256249,  0.989555881157068 ]
    mass: 118.710000
    reduced_to: 85
  - symbol: Sn # 88
    coordinates: [  0.009086304888228,  0.773935236256249,  0.989555881157068 ]
    mass: 118.710000
    reduced_to: 85
  - symbol: Sn # 89
    coordinates: [  0.342419638221561,  0.773935236256249,  0.989555881157068 ]
    mass: 118.710000
    reduced_to: 85
  - symbol: Sn # 90
    coordinates: [  0.675752971554894,  0.773935236256249,  0.989555881157068 ]
    mass: 118.710000
    reduced_to: 85
  - symbol: Sn # 91
    coordinates: [  0.044016967877048,  0.422873299260397,  0.198860848833875 ]
    mass: 118.710000
    reduced_to: 91
  - symbol: Sn # 92
    coordinates: [  0.377350301210381,  0.422873299260397,  0.198860848833875 ]
    mass: 118.710000
    reduced_to: 91
  - symbol: Sn # 93
    coordinates: [  0.710683634543715,  0.422873299260397,  0.198860848833875 ]
    mass: 118.710000
    reduced_to: 91
  - symbol: Sn # 94
    coordinates: [  0.044016967877048,  0.922873299260397,  0.198860848833875 ]
    mass: 118.710000
    reduced_to: 91
  - symbol: Sn # 95
    coordinates: [  0.377350301210381,  0.922873299260397,  0.198860848833875 ]
    mass: 118.710000
    reduced_to: 91
  - symbol: Sn # 96
    coordinates: [  0.710683634543715,  0.922873299260397,  0.198860848833875 ]
    mass: 118.710000
    reduced_to: 91
  - symbol: Sn # 97
    coordinates: [  0.158582678447935,  0.441529556182659,  0.886526779424249 ]
    mass: 118.710000
    reduced_to: 97
  - symbol: Sn # 98
    coordinates: [  0.491916011781268,  0.441529556182659,  0.886526779424249 ]
    mass: 118.710000
    reduced_to: 97
  - symbol: Sn # 99
    coordinates: [  0.825249345114601,  0.441529556182659,  0.886526779424249 ]
    mass: 118.710000
    reduced_to: 97
  - symbol: Sn # 100
    coordinates: [  0.158582678447935,  0.941529556182659,  0.886526779424249 ]
    mass: 118.710000
    reduced_to: 97
  - symbol: Sn # 101
    coordinates: [  0.491916011781268,  0.941529556182659,  0.886526779424249 ]
    mass: 118.710000
    reduced_to: 97
  - symbol: Sn # 102
    coordinates: [  0.825249345114601,  0.941529556182659,  0.886526779424249 ]
    mass: 118.710000
    reduced_to: 97
  - symbol: Sn # 103
    coordinates: [  0.306286702097330,  0.124132338823946,  0.772849150803540 ]
    mass: 118.710000
    reduced_to: 103
  - symbol: Sn # 104
    coordinates: [  0.639620035430663,  0.124132338823946,  0.772849150803540 ]
    mass: 118.710000
    reduced_to: 103
  - symbol: Sn # 105
    coordinates: [  0.972953368763996,  0.124132338823946,  0.772849150803540 ]
    mass: 118.710000
    reduced_to: 103
  - symbol: Sn # 106
    coordinates: [  0.306286702097330,  0.624132338823946,  0.772849150803540 ]
    mass: 118.710000
    reduced_to: 103
  - symbol: Sn # 107
    coordinates: [  0.639620035430663,  0.624132338823946,  0.772849150803540 ]
    mass: 118.710000
    reduced_to: 103
  - symbol: Sn # 108
    coordinates: [  0.972953368763996,  0.624132338823946,  0.772849150803540 ]
    mass: 118.710000
    reduced_to: 103

displacements:
- atom:    1
  displacement:
    [   0.0100000000000000,  0.0000000000000000,  0.0000000000000000 ]
  forces:
  - [  -0.0219684615731239, -0.0056055393069983, -0.0060069030150771 ]
  - [   0.0005545636522584, -0.0055403606966138, -0.0060457866638899 ]
  - [   0.0005584502941929, -0.0056907683610916, -0.0060194460675120 ]
  - [   0.0001240796264028, -0.0056159142404795, -0.0060340440832078 ]
  - [   0.0000903345862753, -0.0056022587232292, -0.0060353181324899 ]
  - [   0.0000907571520656, -0.0056299320422113, -0.0060309236869216 ]
  - [  -0.0007481677457690, -0.0111113712191582, -0.0210862420499325 ]
  - [  -0.0010926667600870, -0.0114506278187037, -0.0216652490198612 ]
  - [  -0.0010902499780059, -0.0107722375541925, -0.0205048136413097 ]
  - [  -0.0003173481673002, -0.0111118052154779, -0.0210847817361355 ]
  - [  -0.0003576539456844, -0.0110969860106707, -0.0211053937673569 ]
  - [  -0.0003577917814255, -0.0111264167353511, -0.0210666395723820 ]
  - [   0.0000256326711678,  0.0144677096977830,  0.0205080620944500 ]
  - [  -0.0000016746344045,  0.0144671760499477,  0.0204903930425644 ]
  - [   0.0000070393252827,  0.0144662195816636,  0.0205202437937260 ]
  - [   0.0000151754757098,  0.0144684240221977,  0.0205058194696903 ]
  - [   0.0000195744323719,  0.0144661813974380,  0.0205069817602634 ]
  - [   0.0000191074213944,  0.0144659131765366,  0.0205052699893713 ]
  - [   0.0005216128774919,  0.0042549734935164,  0.0054816729389131 ]
  - [   0.0001100830340874,  0.0044612581841648,  0.0055007403716445 ]
  - [   0.0005239556776360,  0.0046627363190055,  0.0055321976542473 ]
  - [   0.0001342570758425,  0.0044548292644322,  0.0055100182071328 ]
  - [   0.0001276274560951,  0.0044597787782550,  0.0055014044046402 ]
  - [   0.0001350975944661,  0.0044642910361290,  0.0054921070113778 ]
  - [   0.0003159567713737,  0.0370663553476334, -0.0225176941603422 ]
  - [   0.0003145595546812,  0.0370749011635780, -0.0225448012351990 ]
  - [   0.0003163956571370,  0.0370662808418274, -0.0225340072065592 ]
  - [   0.0003104372881353,  0.0370707958936691, -0.0225331541150808 ]
  - [   0.0003084973432124,  0.0370606221258640, -0.0225201230496168 ]
  - [   0.0002985319588333,  0.0370741486549377, -0.0225459411740303 ]
  - [  -0.0000734106870368,  0.0315433405339718, -0.0055861677974463 ]
  - [  -0.0007431654958054,  0.0321112647652626, -0.0050148610025644 ]
  - [  -0.0007454153383151,  0.0309747941792011, -0.0061710979789495 ]
  - [   0.0003630418796092,  0.0315464287996292, -0.0055906064808369 ]
  - [   0.0003011127701029,  0.0315002389252186, -0.0055702347308397 ]
  - [   0.0003029957879335,  0.0315900295972824, -0.0056082997471094 ]
  - [  -0.0001006588863675, -0.0395204573869705,  0.0231167916208506 ]
  - [  -0.0000971442059381, -0.0408822074532509,  0.0240744277834892 ]
  - [  -0.0003713190963026, -0.0402020029723644,  0.0235959719866514 ]
  - [  -0.0000477029971080, -0.0400818437337875,  0.0234621167182922 ]
  - [  -0.0000454990804428, -0.0403285659849644,  0.0237290561199188 ]
  - [  -0.0003232064482290, -0.0402026474475861,  0.0235947798937559 ]
  - [   0.0000351287453668, -0.0324038006365299,  0.0064594317227602 ]
  - [   0.0000348678440787, -0.0323210246860981,  0.0061838123947382 ]
  - [  -0.0001884071825771, -0.0323679335415363,  0.0063220001757145 ]
  - [   0.0000020672887331, -0.0328897163271904,  0.0066659376025200 ]
  - [   0.0000043871186790, -0.0318447798490524,  0.0059786159545183 ]
  - [  -0.0001709898351692, -0.0323677435517311,  0.0063228178769350 ]
  - [  -0.0002733886649366, -0.0025678295642138, -0.0158492978662252 ]
  - [  -0.0002592706878204, -0.0025802408345044, -0.0157591514289379 ]
  - [  -0.0002600034058560, -0.0025766920298338, -0.0159410983324051 ]
  - [  -0.0007411870756187, -0.0025984481908381, -0.0158498492091894 ]
  - [  -0.0004713230009656, -0.0027510742656887, -0.0158515684306622 ]
  - [  -0.0004667385655921, -0.0024084832984954, -0.0158416051417589 ]
  - [   0.0003027874045074,  0.0432593300938606, -0.0070358701050282 ]
  - [   0.0002689554821700,  0.0432787649333477, -0.0071074850857258 ]
  - [   0.0002738118637353,  0.0432654246687889, -0.0069775804877281 ]
  - [   0.0002854100894183,  0.0432725399732590, -0.0070395022630692 ]
  - [   0.0002782010706142,  0.0432579070329666, -0.0070403367280960 ]
  - [   0.0002796890912578,  0.0432722121477127, -0.0070401914417744 ]
  - [  -0.0001615985675016,  0.0003583477810025, -0.0003800820559263 ]
  - [  -0.0001595242647454,  0.0004478879272938, -0.0004033516161144 ]
  - [  -0.0000548323478142,  0.0004054540768266, -0.0003906160127372 ]
  - [  -0.0001127669456764,  0.0003936067223549, -0.0004231759812683 ]
  - [  -0.0001125577764469,  0.0004209151957184, -0.0003598867915571 ]
  - [  -0.0000581339918426,  0.0004056785255671, -0.0003897456917912 ]
  - [  -0.0000273102068604, -0.0129006914794445, -0.0004713833332062 ]
  - [  -0.0000378165022994, -0.0128950513899326, -0.0004500821232796 ]
  - [  -0.0000375305862690, -0.0128784701228142, -0.0005178153514862 ]
  - [  -0.0000177979982254, -0.0128790251910686, -0.0004676282405853 ]
  - [  -0.0000411907676607, -0.0128835625946522, -0.0004866793751717 ]
  - [  -0.0000436991722381, -0.0129124112427235, -0.0004861652851105 ]
  - [  -0.0000875793630257,  0.0026709940284491,  0.0015222951769829 ]
  - [  -0.0000843471207190,  0.0027266684919596,  0.0012917108833790 ]
  - [  -0.0000207225875783,  0.0026988962199539,  0.0014023790135980 ]
  - [  -0.0000969202228589,  0.0026676952838898,  0.0014279820024967 ]
  - [  -0.0000952429545578,  0.0027308971621096,  0.0013830997049809 ]
  - [  -0.0000988907268038,  0.0026995283551514,  0.0014065168797970 ]
  - [  -0.0002805676776916,  0.0160594545304775, -0.0008082389831543 ]
  - [  -0.0003985369112343,  0.0160670615732670, -0.0008954629302025 ]
  - [  -0.0003980579786003,  0.0160428881645203, -0.0006812065839767 ]
  - [  -0.0002431753091514,  0.0160561539232731, -0.0007891282439232 ]
  - [  -0.0002585849724710,  0.0161055549979210, -0.0007784441113472 ]
  - [  -0.0002575661055744,  0.0160072259604931, -0.0007979497313499 ]
  - [   0.0067927967756987, -0.0198619458824396,  0.0301179531961679 ]
  - [   0.0069520059041679, -0.0262748263776302,  0.0213826969265938 ]
  - [   0.0001690787757980, -0.0230225753039122,  0.0258194766938686 ]
  - [   0.0000343468964275, -0.0229653380811214,  0.0257957242429256 ]
  - [   0.0000358736833732, -0.0230753347277641,  0.0258416905999184 ]
  - [   0.0001399518077960, -0.0230215378105640,  0.0258180815726519 ]
  - [   0.0062062768265605, -0.0484224930405617,  0.0018452145159245 ]
  - [   0.0063400664366782, -0.0416530184447765,  0.0099440440535545 ]
  - [  -0.0000106721417978, -0.0450856089591980,  0.0058452077209949 ]
  - [  -0.0001098194625229, -0.0450942888855934,  0.0058643594384193 ]
  - [  -0.0001096469350159, -0.0450771898031235,  0.0058261044323444 ]
  - [  -0.0001087618293241, -0.0450845845043659,  0.0058446340262890 ]
  - [  -0.0006078340811655,  0.0216723401099443, -0.0246420204639435 ]
  - [  -0.0000327114248648,  0.0216166973114014, -0.0245683230459690 ]
  - [  -0.0000298129161820,  0.0217350013554096, -0.0247606113553047 ]
  - [   0.0002057578967651,  0.0216791145503521, -0.0246644057333469 ]
  - [   0.0001391803234583,  0.0216416232287884, -0.0246588699519634 ]
  - [   0.0001403372298228,  0.0217167865484953, -0.0246672797948122 ]
  - [   0.0000932084658416,  0.0011465945281088,  0.0153346247971058 ]
  - [   0.0002112844522344,  0.0012277644127607,  0.0154613330960274 ]
  - [   0.0000911324023036,  0.0013063088990748,  0.0155817270278931 ]
  - [   0.0000684476108290,  0.0011568507179618,  0.0155424028635025 ]
  - [   0.0001627186138649,  0.0012280428782105,  0.0154606010764837 ]
  - [   0.0000704480335116,  0.0013007409870625,  0.0153741035610437 ]
- atom:    1
  displacement:
    [  -0.0100000000000000,  0.0000000000000000,  0.0000000000000000 ]
  forces:
  - [   0.0221851915121078, -0.0056279152631760, -0.0060324193909764 ]
  - [  -0.0003426325856708, -0.0056914249435067, -0.0060202870517969 ]
  - [  -0.0003387324977666, -0.0055404501035810, -0.0060456451028585 ]
  - [   0.0000929363159230, -0.0056156055070460, -0.0060340580530465 ]
  - [   0.0001263474696316, -0.0056302458979189, -0.0060316994786263 ]
  - [   0.0001267857005587, -0.0056018293835223, -0.0060348762199283 ]
  - [   0.0001283269375563, -0.0111119961366057, -0.0210862196981907 ]
  - [   0.0004694797098637, -0.0107727786526084, -0.0205065421760082 ]
  - [   0.0004740925505757, -0.0114513561129570, -0.0216666758060455 ]
  - [  -0.0003031482920051, -0.0111125688999891, -0.0210854373872280 ]
  - [  -0.0002637431025505, -0.0111259669065475, -0.0210668444633484 ]
  - [  -0.0002630464732647, -0.0110965892672539, -0.0211045257747173 ]