11
Lattice="4.241529541570712 0.001443149843431694 -0.9316899850326167 -0.20440839599202612 4.192521366529111 -0.9243909848479032 0.3480684511778026 0.39027785135637466 11.703035863344514" Properties=species:S:1:pos:R:3:forces:R:3 structure_index=0 total_energy=-31.996509552001953 stress="0.02948492020368576 -0.0020872412715107203 -0.010708377696573734 -0.002087254077196121 0.025933492928743362 -0.01023132260888815 -0.010708138346672058 -0.010231221094727516 -0.017112748697400093" pbc="T T T"
Li       0.96892587       1.42995110       0.08777353       0.00497643       0.00671096       0.01671405
Li       1.29778063       3.98157953       1.58051805       0.00535086       0.00467909       0.02696969
Li       2.30113082       0.63056847       6.14838899      -0.00272282      -0.00571215      -0.02001897
Li       2.54316868       3.08439856       7.23714558      -0.01110689      -0.01071215      -0.03638108
Li       3.05023174       1.41939220       9.56248653       0.00079888      -0.00651499      -0.00995558
Li       4.06944943       0.25672287       4.07099293      -0.00401829       0.00063601      -0.01073904
Ga       2.97738973       3.51693816      -0.89896439      -0.00055837      -0.00095709       0.00129797
Ga       0.85933428       3.53926418       9.69479478       0.00152620       0.00600293       0.01415116
Sn       0.54857739       1.01079689       8.28823165       0.00389729       0.00506720       0.01276840
Sn       1.83540981       2.34364498       4.02759813       0.00006770      -0.00022792      -0.00069205
Sn       3.49442456       1.85898089       1.46080455       0.00178901       0.00102810       0.00588539
8
Lattice="3.1891539857496016 -0.0008468653066831042 0.005874482123125323 0.001084141532141466 3.9862618129646257 -0.002431351539184374 -0.014603704529505098 0.0084998974849025 12.165123381682115" Properties=species:S:1:pos:R:3:forces:R:3 structure_index=1 total_energy=-23.902690887451172 stress="0.03893520310521126 0.00010860121983569115 0.0016007774975150824 0.00010859735630219802 0.04706264287233353 0.0001552009052829817 0.0016006770310923457 0.00015540544700343162 0.038538772612810135" pbc="T T T"
Li       3.05763565       0.68784977       4.21136969      -0.00052807      -0.00004681       0.02765487
Li       3.05228627       0.68944621       7.26731083       0.00022164       0.00101024      -0.03826734
Li       1.45168919       2.68790670      12.06964200      -0.00110873      -0.00040105       0.01609332
Ga       3.05589162       0.68726360       1.34409338       0.00283661      -0.00136508       0.01425670
Ga       1.46485511       2.68110695       2.62847670      -0.00105487       0.00059140       0.02847258
Ga       3.04854289       0.69256777      10.70908406      -0.00111449       0.00188476       0.00814401
Sn       1.46057528       2.68207706       5.65986861       0.00040722       0.00042350      -0.01076168
Sn       1.45625049       2.68556301       9.08811881       0.00034069      -0.00209695      -0.04559245
8
Lattice="4.562350106225553 -0.0023356624921691558 -0.0004105954519845459 -2.279074880557384 3.9614881034945766 0.007340861865936601 1.2510282035543658e-06 0.00203728391797485 8.78429894047641" Properties=species:S:1:pos:R:3:forces:R:3 structure_index=2 total_energy=-23.253686904907227 stress="0.009944414719939232 -0.0023573534563183784 -0.0013187394943088293 -0.002357274293899536 0.009167619980871677 -0.00027148984372615814 -0.0013188645243644714 -0.00027175567811354995 -0.045544467866420746" pbc="T T T"
Li      -1.14749223       3.75903021       6.92283095      -0.00100232       0.00080220       0.01960259
Li       1.13158430       2.43606519       5.73891578       0.00035647      -0.00000468      -0.01925048
Li      -1.14874640       3.76056107       1.10130792       0.00088197       0.00073982       0.01105139
Li       1.13244670       2.43354502       2.77700436      -0.00089734      -0.00084456      -0.01339454
Ga       3.41310250       1.11774655       7.62767118       0.00025851       0.00020056      -0.00113910
Ga       3.41189731       1.11416697       5.02397244       0.00066568      -0.00031901       0.00340142
Sn       1.13266653       2.43959198       8.64692024      -0.00057622      -0.00082048      -0.03845188
Sn      -1.14897488       3.75641024       4.01437607       0.00031324       0.00024615       0.03818061
8
Lattice="4.460294086169262 -0.0025490358851565733 -0.0005901921100081167 -2.227431298859614 3.865093335587161 0.001860294915080361 0.0015190489475002487 -0.004524593001468271 10.495759147647941" Properties=species:S:1:pos:R:3:forces:R:3 structure_index=3 total_energy=-24.385986328125 stress="0.02647765912115574 3.0000370315974578e-05 8.167201485775877e-06 2.9991913834237494e-05 0.026425721123814583 -0.00021089063375256956 8.217728463932872e-06 -0.00021114923583809286 0.007474747486412525" pbc="T T T"
Li      -2.08960663       3.63405176       7.78360897       0.00027866      -0.00010320      -0.01593852
Li      -2.08931353       3.63492482       4.87051202      -0.00023896       0.00016187       0.01516089
Li      -2.08973926       3.63525049       1.07870991      -0.00071368       0.00033381       0.00001125
Ga       2.36849734       1.05684039       2.39864005       0.00032696      -0.00025496       0.00048282
Ga       2.36909117       1.05371013      10.25057425       0.00067064      -0.00034014       0.00006419
Sn       0.13930674       2.34599254       3.25204009       0.00011497       0.00004750       0.03692631
Sn       0.14062161       2.34465075       6.32568964      -0.00092095       0.00031347       0.00044548
Sn       0.13958459       2.34362988       9.39936268       0.00048237      -0.00015836      -0.03715240
4
Lattice="4.057575913371229 0.0004041439777362912 0.0003028330886762027 -0.0006021942950093477 4.05737513388956 -0.0006299255167090391 -0.00035938310125846864 0.0007505671203920294 4.4469278227191475" Properties=species:S:1:pos:R:3:forces:R:3 structure_index=4 total_energy=-11.800260543823242 stress="0.056340523064136505 -0.0018538496224209666 -8.890589379006997e-05 -0.0018540163291618228 0.05532350763678551 0.00019063106446992606 -8.892745245248079e-05 0.000190657505299896 0.094182088971138" pbc="T T T"
Li       0.64387750       2.55673090       3.18439689      -0.00028121       0.00007036      -0.00061553
Li       2.67289835       0.52847708       3.18473328      -0.00032662      -0.00043212      -0.00037570
Ga       2.67264426       2.55659298       0.96070620      -0.00063304      -0.00050976       0.00041087
Sn       0.64391774       0.52751340       0.96097725       0.00124086       0.00087152       0.00058036
12
Lattice="4.507989117964457 0.005041994190295602 0.6960440051638126 2.1958567139738703 3.9369155194237284 0.6969561032164568 0.014437462825792894 0.004786395890245095 14.852984878264678" Properties=species:S:1:pos:R:3:forces:R:3 structure_index=5 total_energy=-36.010704040527344 stress="-0.015509765595197678 8.695175347384065e-05 -0.0007370597450062633 8.724605868337676e-05 -0.01559697650372982 -0.00044258395791985095 -0.000737411028239876 -0.0004429555556271225 -0.010742150247097015" pbc="T T T"
Li       3.56956119       0.36927253       3.77053065       0.00310590       0.00169321      -0.01900105
Li       2.48856719       2.37621174      10.76738837      -0.00575872      -0.00330260       0.03640388
Li       5.24104281       1.35093089       7.88974004      -0.00036662      -0.00030053       0.00200556
Li       4.48833623       3.55176499      12.75033899      -0.00157108      -0.00076637       0.01010341
Ga       4.83151809       1.10831390      10.54860991      -0.00094994      -0.00045910       0.00500837
Ga       1.56840599       1.83855682       1.77578880       0.00274550       0.00148288      -0.01736885
Ga       1.97822910       2.07550098      14.06993296       0.00152872       0.00106245      -0.01011358
Ga       4.93323704       3.81424425       9.87019001      -0.00142550      -0.00075512       0.00844619
Ga       3.13610386       0.11322534       6.58525070       0.00160615       0.00091614      -0.00955861
Sn       4.39111997       0.84875562      13.39798545      -0.00096109      -0.00051175       0.00660138
Sn       3.67607707       3.07776593       3.06237852       0.00204618       0.00100916      -0.01184472
Sn       3.23125124       2.81515098       5.94974133       0.00000047      -0.00006841      -0.00068192
8
Lattice="4.295481946438592 0.002618413204634163 -0.0006338238429948404 -0.0019746518595504248 4.214532312949214 -0.0011950085069888335 0.0017018669999618184 0.003336467015517447 8.44301458707089" Properties=species:S:1:pos:R:3:forces:R:3 structure_index=6 total_energy=-23.92154312133789 stress="-0.015307243913412094 0.0021429937332868576 0.0008659239974804223 0.002142983488738537 -0.03628174588084221 0.002830775920301676 0.0008660109015181661 0.002830744255334139 -0.04111253097653389" pbc="T T T"
Li       0.65292485       3.24383199       4.96660664       0.00015876      -0.00016738      -0.00150044
Li       0.65398035       1.13716047       7.15091009       0.00039888       0.00023233      -0.04473301
Li       0.65303232       1.13567668       2.78294625       0.00044519      -0.00001373       0.04389443
Ga       2.80007879       1.13613305       0.74382969       0.00055491      -0.00006621       0.00213405
Ga       2.80196724       1.13773640       4.96653357      -0.00052219       0.00013677      -0.00130785
Ga       0.65194367       3.24214424       0.74470826      -0.00032315      -0.00015596      -0.00082183
Sn       2.80108056       3.24581328       7.04123336      -0.00041838      -0.00011735       0.00670617
Sn       2.80017504       3.24420558       2.88926246      -0.00029402       0.00015152      -0.00437153
4
Lattice="4.356005842139644 0.002633885074264197 -0.002489336284618594 -0.0033084573157565983 4.54843107838093 -0.002170239919518792 0.002178635907388852 0.0026901136092222747 4.5471397217290574" Properties=species:S:1:pos:R:3:forces:R:3 structure_index=7 total_energy=-13.074105262756348 stress="0.052532441914081573 -0.0019612277392297983 -0.001465003821067512 -0.0019612142350524664 0.08311446756124496 0.0020892308093607426 -0.0014650420052930713 0.0020892086904495955 0.07884088903665543" pbc="T T T"
Li       2.46593803       3.84222979       2.53976980      -0.00130775       0.00032968       0.00000602
Ga       2.46595324       1.56694965       0.26787455      -0.00102514       0.00082864      -0.00011940
Sn       0.28489642       3.84077593       0.26743835       0.00267811      -0.00123272       0.00078793
Sn       0.28974681       1.56747230       2.54269245      -0.00034522       0.00007440      -0.00067454
12
Lattice="4.289397517548595 -0.010422738127718897 0.0021792438011559796 0.014804625242548138 6.28413219175521 -0.000943238031309371 -0.006322762209576991 -0.0004758564117291943 9.202489939613436" Properties=species:S:1:pos:R:3:forces:R:3 structure_index=8 total_energy=-36.921878814697266 stress="-0.028460148721933365 -0.0011132468935102224 -0.0003324901044834405 -0.0011132634244859219 -0.001971601042896509 0.00035984310670755804 -0.00033241583150811493 0.0003598746843636036 -0.031265292316675186" pbc="T T T"
Li       3.84958420       5.18412877       7.14171950      -0.00113667      -0.03199932      -0.02106535
Li       1.69542375       0.68848655       2.54073834       0.00103014       0.03208856      -0.02115221
Li       3.84203237       2.04236352       7.28922468      -0.00120078      -0.03178157       0.02115910
Li       1.70239935       3.83192459       2.68647716       0.00133795       0.03075444       0.02070430
Ga       1.69853929       3.68546789       8.76466336       0.00198633      -0.03752453       0.02979130
Ga       1.69449507       0.54244851       5.66522940      -0.00222745      -0.03455893      -0.02982876
Ga       3.85333818       5.32812347       1.06439745      -0.00220787       0.03786857      -0.03126905
Ga       3.84308987       2.18944855       4.16406265       0.00243554       0.03320298       0.03052067
Sn       3.85022589       5.46566357       4.07934775       0.00308793       0.02947274       0.03847605
Sn       3.84586815       2.32170159       1.14988285      -0.00234019       0.02973260      -0.04015008
Sn       1.69088955       0.40801896       8.68130638       0.00332848      -0.02848301       0.03626953
Sn       1.70247074       3.55005835       5.74769703      -0.00409342      -0.02877254      -0.03345554
6
Lattice="4.3701758680012075 -0.07140329530890845 -0.05826942469650603 -2.1102796246747735 4.744978394619385 -1.693584958293208 0.08239113874368943 0.02883563768157501 6.496368761627416" Properties=species:S:1:pos:R:3:forces:R:3 structure_index=9 total_energy=-19.388614654541016 stress="0.05272805318236351 0.006712373811751604 -0.0010774426627904177 0.00671243853867054 0.03604995459318161 -0.002734916750341654 -0.0010775551199913025 -0.0027348455041646957 0.022074690088629723" pbc="T T T"
Li       2.07649794       3.36397106       3.99458446       0.00193393      -0.01506955       0.01767034
Li       1.95676241       0.22231121       0.87941448       0.01179038       0.02986905      -0.03725045
Ga       2.01078060       0.22134741       4.18852114      -0.00564392      -0.00138267      -0.00231640
Sn       2.02173817       3.40603229       0.73489170       0.01796578       0.00403303       0.02658495
Sn      -0.13634203       1.76933265       5.69393089       0.01111803      -0.00249490      -0.01308596
Sn      -0.14670001       1.87690884       2.52738637      -0.03716420      -0.01495496       0.00839753
10
Lattice="3.2947770785815593 -0.0014186507592060642 0.0011221949097241668 0.0016027604249109868 3.2947777502634015 0.001678297573966658 -0.005395078165354624 -0.008452039266431783 17.990820904379035" Properties=species:S:1:pos:R:3:forces:R:3 structure_index=10 total_energy=-30.93817710876465 stress="-0.013008266687393188 0.0005658969166688621 1.4754836229258217e-05 0.0005658019799739122 -0.013008670881390572 2.5009570890688337e-05 1.444387817173265e-05 2.512264472898096e-05 0.030987577512860298" pbc="T T T"
Li       2.49280170       1.45713415      11.49048570       0.00026101      -0.00016451      -0.00270334
Li       2.49117184       1.45627096      15.21166886      -0.00097092      -0.00186083       0.04713255
Li       2.49421873       1.45959302       3.93657574       0.00089149       0.00127370      -0.00879952
Li       2.49419222       1.45924439       7.70889367       0.00048850      -0.00050756       0.00276070
Li       2.49425661       1.46169649       0.19875477       0.00148873       0.00153228      -0.04335428
Ga       0.84324584       3.10280437      16.70050459       0.00055199       0.00010847       0.00296811
Sn       0.84527015       3.10407221      13.38149838       0.00013238       0.00113582      -0.03353668
Sn       0.84753300       3.10626264       9.57485585      -0.00086762       0.00007910       0.03042112
Sn       0.84821228       3.10763438       5.84759905      -0.00087078      -0.00013516      -0.03003114
Sn       0.84835806       3.10974500       2.03652519      -0.00110480      -0.00146132       0.03514247
12
Lattice="3.362262565288769 0.0007257798719941172 -4.176826430760658e-05 -0.0007450909775801892 7.845559328496786 -0.0016144140057130758 0.0020951588893301414 0.006144048666447776 9.255842423950266" Properties=species:S:1:pos:R:3:forces:R:3 structure_index=11 total_energy=-36.093353271484375 stress="0.016784150153398514 0.0006485476042144 0.0011311424896121025 0.0006485453923232853 -0.0057037887163460255 0.0020667752251029015 0.0011312225833535194 0.002066926099359989 0.017445644363760948" pbc="T T T"
Li       2.61395742       7.71963340       8.03881020       0.00028169       0.00979476       0.01864076
Li       0.93322769       2.45740809       7.50041842      -0.00014060       0.00913567      -0.00940748
Li       0.93325358       6.73809827       5.25338969      -0.00043130      -0.00874709      -0.02084150
Li       0.93200424       6.37612951       1.19599791       0.00014150       0.00752915       0.01050104
Li       0.93301890       2.81286350       3.44255198      -0.00009485      -0.00760328       0.02048060
Li       2.61263495       3.79013726       0.65725195       0.00037498       0.01158828      -0.01822339
Ga       2.61451212       4.19423172       5.80830375      -0.00042908      -0.00258077       0.02354383
Ga       2.61415249       0.26746982       2.89100409      -0.00004116      -0.00212173      -0.02480938
Sn       2.61377811       5.23803454       3.19905874      -0.00007654      -0.01715624       0.00312117
Sn       0.93265163       5.30961624       7.89329677       0.00064383       0.00881550      -0.00692955
Sn       2.61429893       1.31870122       5.49754849       0.00040432      -0.01847176      -0.00196369
Sn       0.93273067       1.38096973       0.80509096      -0.00063277       0.00981751       0.00588757
10
Lattice="4.341543855219873 -0.00025340001807448053 -1.464824189841237 -0.0033274003532414004 5.798267997048954 -0.011315035784763098 0.10524575711551117 0.006403871418664907 7.4821742421261055" Properties=species:S:1:pos:R:3:forces:R:3 structure_index=12 total_energy=-29.03546714782715 stress="-0.018318120390176773 -0.0014015212655067444 -0.0004776908317580819 -0.0014014648040756583 -0.041283994913101196 -0.004169946536421776 -0.00047768454533070326 -0.004169908817857504 -0.01890985108911991" pbc="T T T"
Li       0.23384680       4.65799654       2.85811796       0.01567870      -0.00080011       0.04394754
Li       1.11568420       3.22869070       5.47015237      -0.00237166      -0.00700324      -0.00504654
Li       1.11626439       0.28737621       5.47400077      -0.00020340       0.00739891      -0.00107967
Li       1.99654164       3.19975295       0.91524665       0.00524895      -0.02764308       0.01442924
Li       1.99873685       0.30705492       0.92277014       0.00406918       0.02795211       0.01045195
Li       2.87480888       1.75501387       3.51776846      -0.01512734       0.00223402      -0.03505941
Ga       0.27576375       1.75786289       2.98608324       0.00607674       0.00099323       0.00699249
Sn       2.85252066       4.65516451       3.45254052      -0.00063566      -0.00378835      -0.00143740
Sn       3.79711937       4.65590354       6.25294271      -0.00294938       0.00297041      -0.00673043
Sn       3.70242238       1.75076520      -1.19748046      -0.00978611      -0.00231391      -0.02646777
18
Lattice="6.038413968509413 -0.11830139816223961 -2.4762416957070226 -2.0850824306770246 7.089898731907666 -2.9188870757575787 0.017540967675739365 -0.12535385446703878 7.87843622960212" Properties=species:S:1:pos:R:3:forces:R:3 structure_index=13 total_energy=-51.67948913574219 stress="0.004265500232577324 -0.00014422701497096568 0.0013621830148622394 -0.00014419114449992776 0.0029346125666052103 -0.0020882142707705498 0.001362670911476016 -0.0020882824901491404 0.01202018279582262" pbc="T T T"
Li       4.48841326       4.03263666       0.42475894      -0.01148824       0.01629278       0.00487194
Li       2.99469231       6.08758990      -3.06765007      -0.01625726       0.01085752      -0.00607920
Li       2.47346377       0.65139523      -0.86595526      -0.01144327      -0.01910952       0.00136580
Li      -0.60940981       4.66303872       0.01533323       0.02708832       0.03589217       0.00203361
Li       5.34816126       1.67231581      -1.26167401       0.04262035       0.00615091      -0.00125720
Li       2.04100240       5.77195309      -0.44609048       0.01074237      -0.00838694      -0.00820799
Li       0.07781980       2.14138020       6.13705419       0.03220377       0.00013361       0.01367672
Li       1.19152857       5.18667738       2.39974474      -0.01687597      -0.02032966      -0.00210377
Ga       4.26311497       1.32636243       1.42599180      -0.00251899      -0.00410825      -0.01456691
Ga       1.82416194       2.91517577       0.89394444       0.02954688      -0.01578620      -0.00749549
Ga      -1.32452866       6.94673827       1.55830916      -0.03741198       0.01992564       0.01714478
Ga       3.58604030       3.53846435       3.03172465       0.00227734       0.01506207       0.01700422
Ga       3.29259475       0.92485775       4.10363645      -0.02971891      -0.01233416      -0.00258470
Ga       1.68260252       0.27155237       1.87894322      -0.00347524      -0.02587269      -0.00811336
Ga       0.83009062       2.48856867       3.44427814      -0.02146176       0.01337519      -0.00666310
Sn       0.30042558       4.98647143      -2.73611993      -0.00528182      -0.00644640       0.00262146
Sn       3.62368492       6.48019335       1.93370634      -0.00224933      -0.01658504       0.01559483
Sn       3.00455113       3.28011016      -1.94649673       0.01370382       0.01126902      -0.01724166
19
Lattice="6.869848760805137 -0.035578168268659394 -1.0053181257188548 -0.8827418024839209 6.8891923332406995 1.0274152450067084 -0.013399726146820104 0.03009235239584394 6.945092011597815" Properties=species:S:1:pos:R:3:forces:R:3 structure_index=14 total_energy=-50.97517013549805 stress="0.016222450882196426 0.0018270571017637849 0.015932384878396988 0.0018269115826115012 0.01187191717326641 -0.004094211384654045 0.015932194888591766 -0.004094196483492851 0.012289296835660934" pbc="T T T"
Li       2.42068111       4.14087567       0.50087335       0.00805793      -0.00307777       0.02507063
Li       6.39452167       0.83901213      -0.50855526      -0.01170802      -0.01861881       0.01112659
Li       4.98950601       5.02636301       1.11599266       0.00407921      -0.00399935      -0.00392100
Li       5.60901926       1.55146469       3.99505082       0.00887588       0.01243705       0.00593551
Li       3.18835961       3.73990782       3.19664863      -0.00144971       0.01012578      -0.00273420
Li       0.04765268       0.16498485       3.18339252      -0.00311888      -0.00434010      -0.00206600
Li       3.64419266       0.16666836       6.29185344       0.00265649      -0.00434259       0.01010559
Li       2.98708307       0.76092485       3.41777587      -0.00853909       0.03070817       0.01556941
Li       2.05023091       1.55721641       0.90854343      -0.00581718       0.01368919      -0.01172880
Li       0.09639648       6.43598132       6.77138631       0.01547476       0.00856032      -0.02369846
Li       1.64521104       4.83693882       4.97684914       0.01580309      -0.02376046      -0.01686169
Li      -0.35493840       3.65660813       7.28795530       0.00299463      -0.01272950       0.00016616
Li       5.96443084       4.13036091       3.57185727      -0.02728434       0.00704527      -0.00545045
Ga       1.30689920       2.18431908       5.36424327       0.00021946      -0.03177167       0.01260888
Ga       3.90261996       2.77041715       5.60936426      -0.01247027       0.03057776       0.01504996
Ga       0.69766507       2.76972882       2.83314601      -0.01175781       0.03675693       0.00579232
Sn       0.89144422       5.68008344       2.38993001       0.00386460      -0.03254775       0.00108791
Sn       4.74003888       2.17085843       1.40298948       0.02287359       0.01541914      -0.03444986
Sn       4.31554670       5.67600881       5.35515293      -0.00275436      -0.03013157      -0.00160250
4
Lattice="4.115794131779754 0.00032896873183302204 -1.8569336623720643 -0.835786747627453 4.030095299044079 -1.8515698943424248 -0.010378675258012596 -0.014593375809478526 5.473200917713875" Properties=species:S:1:pos:R:3:forces:R:3 structure_index=15 total_energy=-13.043895721435547 stress="0.011123747564852238 0.00968943815678358 0.014561301097273827 0.009689556434750557 0.014152564108371735 0.02593861147761345 0.014561405405402184 0.025938598439097404 0.04595861956477165" pbc="T T T"
Li       3.25900495       1.33662350      -0.11757589       0.00033172       0.00089669       0.00006060
Ga       0.78337940       3.35243753      -0.11465799       0.00024111      -0.00032031      -0.00068047
Sn       0.37967033       0.32253232       4.47492751      -0.01245058       0.00177953       0.00013746
Sn       2.01324083       2.33794697       2.61926048       0.01187775      -0.00235593       0.00048242
6
Lattice="4.336227164122625 0.009427305120338637 1.2335134459651849 1.9813971547318867 3.8558015027914663 1.2308594021123103 0.08885978696052925 0.05699405577292121 7.901696550141325" Properties=species:S:1:pos:R:3:forces:R:3 structure_index=16 total_energy=-18.31428337097168 stress="-0.03389093279838562 0.000329508853610605 -0.012885209172964096 0.0003294111811555922 -0.035600148141384125 -0.008232331834733486 -0.012885358184576035 -0.00823220144957304 0.0027521129231899977" pbc="T T T"
Li       1.92332573       2.81530025       5.21954193      -0.00028734       0.00004642       0.00191960
Li       2.75161551       3.32194735       2.32372862      -0.00511282      -0.00231587       0.01168902
Ga       2.37007147       0.44295904       3.68073730       0.01320408       0.00875056      -0.04720978
Ga       4.54665628       1.77422263       4.25581955      -0.00655480      -0.00312757       0.02250863
Sn       3.70289670       1.26542058       7.20602697      -0.00199366      -0.00287040       0.01540352
Sn       5.45323790       2.33634106       9.28371654       0.00074453      -0.00048313      -0.00431098
11
Lattice="4.293607031240906 -0.007610574926544999 -1.263783186322737 0.038750442485126435 5.206171917608602 0.09627114162052791 -0.016059372487229294 0.042188299944414635 7.861210693419598" Properties=species:S:1:pos:R:3:forces:R:3 structure_index=17 total_energy=-28.415876388549805 stress="-0.02601805329322815 0.002022038446739316 0.006330064032226801 0.00202222540974617 -0.021475885063409805 0.0007565096602775156 0.006329880096018314 0.000756534340325743 -0.019240958616137505" pbc="T T T"
Li       1.67302145       5.08421107      -0.40674680      -0.00746384      -0.01958553      -0.02708689
Li       0.13068141       0.90466647       2.30067051      -0.01040018      -0.01115417      -0.02932907
Li       2.08583956       2.27042301       1.01103522       0.00726919       0.02014414       0.02276594
Li       2.46070577       4.57116551       2.26826703       0.00297801       0.00698399       0.01088473
Li       1.28093290       2.82580238       6.19580262      -0.00293670      -0.00776110      -0.01028276
Li       3.20617350       4.22882136       4.80335113       0.00548935      -0.00074654       0.01630402
Li       0.53413727       3.16650960       3.66020770      -0.00492654       0.00321526      -0.01841831
Li       3.57268755       1.28433656       6.06592405       0.00930999       0.01107447       0.02843717
Ga       0.87057596       0.44731927       4.81974933      -0.00471895       0.00134303      -0.01202165
Ga       2.83085323       1.74356979       3.54762839       0.00601344      -0.00404909       0.01391608
Sn       4.02581884       3.67255442      -0.33220650      -0.00061380       0.00053555       0.00483077
8
Lattice="4.977034727851028 -0.0607708282798311 -2.8431641341628424 -3.326229381465391 4.813933258648842 -0.15566364820806783 0.04609373393798721 -0.08351463010617091 5.852781766932482" Properties=species:S:1:pos:R:3:forces:R:3 structure_index=18 total_energy=-21.38323211669922 stress="0.006356796249747276 -0.007712336257100105 0.004483978264033794 -0.007712304126471281 -0.010568727739155293 -0.02538575977087021 0.004484075587242842 -0.025385938584804535 0.004059297032654285" pbc="T T T"
Li      -1.28483374       2.36442274       3.58199746      -0.00021618      -0.00287453       0.00090193
Li       2.84370446      -0.03363097      -0.68651768       0.00144431       0.00190416      -0.00131188
Li       0.35683355      -0.00290101       0.73452026      -0.00195908       0.00168952      -0.00063116
Li       1.18171381       2.37407995      -0.76741674      -0.00045465      -0.00125531       0.00248147
Li       1.20477989       2.33302528       2.16089787      -0.00085585       0.00042301      -0.00125598
Ga       0.37612667      -0.04394350       3.65876020       0.00431059      -0.00025771       0.00068985
Ga      -1.30481255       2.40452794       0.65685660       0.00050854       0.00414944       0.00139253
Sn       2.86753274      -0.07281779       2.24064351      -0.00277767      -0.00377855      -0.00226678
11
Lattice="5.306661830139201 -0.007034524416166354 -1.152544958165932 -0.7202085903726463 6.065034847616516 -1.8728535248061036 0.3910270107616525 0.04533160382396744 7.513333629666616" Properties=species:S:1:pos:R:3:forces:R:3 structure_index=19 total_energy=-34.13579177856445 stress="0.01952454075217247 0.00419209199026227 -0.0018255305476486683 0.004192058928310871 0.018914461135864258 0.0011235092533752322 -0.0018255695467814803 0.001123535563237965 0.023448102176189423" pbc="T T T"
Li       3.81884296       4.59668601      -1.46272238       0.01519521      -0.02649962      -0.00893368
Li       0.40895207       0.90909961       5.85739002      -0.02172136       0.02623873       0.03384960
Ga       1.66411616       0.11531349       0.73124641       0.00691253       0.00855865       0.00698877
Ga       0.39568481       5.45036518       1.64030980      -0.01501315       0.01893453       0.02655100
Ga       3.04049031       6.27207460       0.80370647      -0.01184076       0.00355171      -0.01127979
Ga       1.13178866       3.49111669      -0.38765770       0.00981408       0.03152670       0.00536996
Ga       2.15869084       2.71439052       1.99277107       0.02981903      -0.00406098      -0.03352512
Sn       2.50873118       5.38726247       3.75616636      -0.00227164      -0.01664972      -0.00012439
Sn       2.85488359       2.29910105       4.85436670      -0.03302151      -0.01364420       0.00465115
Sn       4.48038736       1.77733607       0.10296700       0.02706705      -0.01420359      -0.01484383