phonopy:
  version: "2.37.1"
  frequency_unit_conversion_factor: 15.633302
  symmetry_tolerance: 1.00000e-05

space_group:
  type: "P1"
  number: 1
  Hall_symbol: "P 1"

primitive_matrix:
- [  0.000000000000000,  1.000000000000000,  1.000000000000000 ]
- [  1.000000000000000,  1.000000000000000,  0.000000000000000 ]
- [  0.000000000000000,  1.000000000000000,  0.000000000000000 ]

supercell_matrix:
- [   2,   0,   0 ]
- [   0,   2,   0 ]
- [   0,   0,   1 ]

primitive_cell:
  lattice:
  - [     0.116211779577918,     8.022255653080531,     0.000000000000000 ] # a
  - [     2.521902838915663,     2.776176141630560,     7.098644218804961 ] # b
  - [     8.659283392204287,     0.000000000000000,     0.000000000000000 ] # c
  points:
  - symbol: Li # 1
    coordinates: [  0.193818053472048,  0.437225507331723,  0.756707770031719 ]
    mass: 6.940000
  - symbol: Li # 2
    coordinates: [  0.999147276437238,  0.036883429150277,  0.145053410551715 ]
    mass: 6.940000
  - symbol: Li # 3
    coordinates: [  0.491288198608854,  0.542288847375134,  0.155198484260503 ]
    mass: 6.940000
  - symbol: Li # 4
    coordinates: [  0.449643365464786,  0.691369214336218,  0.750453384461587 ]
    mass: 6.940000
  - symbol: Li # 5
    coordinates: [  0.904136809915081,  0.344026280167657,  0.368901172223599 ]
    mass: 6.940000
  - symbol: Li # 6
    coordinates: [  0.708801040878040,  0.943922595276231,  0.760883965014620 ]
    mass: 6.940000
  - symbol: Sn # 7
    coordinates: [  0.109061024974961,  0.738225069348488,  0.944155737398870 ]
    mass: 118.710000
  - symbol: Sn # 8
    coordinates: [  0.236056199700046,  0.291883055150278,  0.151148842049784 ]
    mass: 118.710000
  - symbol: Sn # 9
    coordinates: [  0.797530645170485,  0.645829929296022,  0.571822527916276 ]
    mass: 118.710000
  - symbol: Sn # 10
    coordinates: [  0.396680605608243,  0.840318929091820,  0.351219289268087 ]
    mass: 118.710000
  - symbol: Sn # 11
    coordinates: [  0.147087431011744,  0.587513981027179,  0.356853482106145 ]
    mass: 118.710000
  - symbol: Sn # 12
    coordinates: [  0.311969884814494,  0.135118286875016,  0.564292624085104 ]
    mass: 118.710000
  - symbol: Sn # 13
    coordinates: [  0.587292112369183,  0.253474554746519,  0.949842777275436 ]
    mass: 118.710000
  - symbol: Sn # 14
    coordinates: [  0.550071967483222,  0.394704058611899,  0.554824923220525 ]
    mass: 118.710000
  - symbol: Sn # 15
    coordinates: [  0.949198590364222,  0.192676792560358,  0.758702006356983 ]
    mass: 118.710000
  - symbol: Sn # 16
    coordinates: [  0.662040021355947,  0.105528050627048,  0.351259489132186 ]
    mass: 118.710000
  - symbol: Sn # 17
    coordinates: [  0.051504655979488,  0.894140230784138,  0.551836750878540 ]
    mass: 118.710000
  - symbol: Sn # 18
    coordinates: [  0.755290260200411,  0.787828667184217,  0.155133020899622 ]
    mass: 118.710000
  - symbol: Sn # 19
    coordinates: [  0.356704468194405,  0.979949390187106,  0.951335045700724 ]
    mass: 118.710000
  - symbol: Sn # 20
    coordinates: [  0.837554536302975,  0.490637835656066,  0.966667010082691 ]
    mass: 118.710000
  reciprocal_lattice: # without 2pi
  - [     0.000000000000000,     0.124653220147129,    -0.048750054951781 ] # a*
  - [     0.000000000000000,     0.000000000000000,     0.140871970643480 ] # b*
  - [     0.115482997230495,    -0.001672906623712,    -0.040372866461872 ] # c*

unit_cell:
  lattice:
  - [     8.659283392204287,     0.000000000000000,     0.000000000000000 ] # a
  - [     0.116211779577918,     8.022255653080531,     0.000000000000000 ] # b
  - [    -6.253592332866541,    -5.246079511449971,     7.098644218804963 ] # c
  points:
  - symbol: Li # 1
    coordinates: [  0.193933277363442,  0.631043560803771,  0.437225507331723 ]
    mass: 6.940000
    reduced_to: 1
  - symbol: Li # 2
    coordinates: [  0.181936839701992,  0.036030705587515,  0.036883429150277 ]
    mass: 6.940000
    reduced_to: 2
  - symbol: Li # 3
    coordinates: [  0.697487331635637,  0.033577045983988,  0.542288847375134 ]
    mass: 6.940000
    reduced_to: 3
  - symbol: Li # 4
    coordinates: [  0.441822598797805,  0.141012579801005,  0.691369214336218 ]
    mass: 6.940000
    reduced_to: 4
  - symbol: Li # 5
    coordinates: [  0.712927452391255,  0.248163090082738,  0.344026280167657 ]
    mass: 6.940000
    reduced_to: 5
  - symbol: Li # 6
    coordinates: [  0.704806560290851,  0.652723636154271,  0.943922595276231 ]
    mass: 6.940000
    reduced_to: 6
  - symbol: Sn # 7
    coordinates: [  0.682380806747358,  0.847286094323449,  0.738225069348488 ]
    mass: 118.710000
    reduced_to: 7
  - symbol: Sn # 8
    coordinates: [  0.443031897200062,  0.527939254850324,  0.291883055150278 ]
    mass: 118.710000
    reduced_to: 8
  - symbol: Sn # 9
    coordinates: [  0.217652457212298,  0.443360574466507,  0.645829929296022 ]
    mass: 118.710000
    reduced_to: 9
  - symbol: Sn # 10
    coordinates: [  0.191538218359907,  0.236999534700063,  0.840318929091820 ]
    mass: 118.710000
    reduced_to: 10
  - symbol: Sn # 11
    coordinates: [  0.944367463133323,  0.734601412038923,  0.587513981027179 ]
    mass: 118.710000
    reduced_to: 11
  - symbol: Sn # 12
    coordinates: [  0.699410910960120,  0.447088171689510,  0.135118286875016 ]
    mass: 118.710000
    reduced_to: 12
  - symbol: Sn # 13
    coordinates: [  0.203317332021955,  0.840766667115702,  0.253474554746519 ]
    mass: 118.710000
    reduced_to: 13
  - symbol: Sn # 14
    coordinates: [  0.949528981832424,  0.944776026095121,  0.394704058611899 ]
    mass: 118.710000
    reduced_to: 14
  - symbol: Sn # 15
    coordinates: [  0.951378798917340,  0.141875382924580,  0.192676792560358 ]
    mass: 118.710000
    reduced_to: 15
  - symbol: Sn # 16
    coordinates: [  0.456787539759233,  0.767568071982995,  0.105528050627047 ]
    mass: 118.710000
    reduced_to: 16
  - symbol: Sn # 17
    coordinates: [  0.445976981662677,  0.945644886763626,  0.894140230784137 ]
    mass: 118.710000
    reduced_to: 17
  - symbol: Sn # 18
    coordinates: [  0.942961688083839,  0.543118927384628,  0.787828667184217 ]
    mass: 118.710000
    reduced_to: 18
  - symbol: Sn # 19
    coordinates: [  0.931284435887831,  0.336653858381511,  0.979949390187106 ]
    mass: 118.710000
    reduced_to: 19
  - symbol: Sn # 20
    coordinates: [  0.457304845738757,  0.328192371959041,  0.490637835656066 ]
    mass: 118.710000
    reduced_to: 20

supercell:
  lattice:
  - [    17.318566784408574,     0.000000000000000,     0.000000000000000 ] # a
  - [     0.232423559155835,    16.044511306161063,     0.000000000000000 ] # b
  - [    -6.253592332866541,    -5.246079511449971,     7.098644218804963 ] # c
  points:
  - symbol: Li # 1
    coordinates: [  0.096966638681721,  0.315521780401885,  0.437225507331723 ]
    mass: 6.940000
    reduced_to: 1
  - symbol: Li # 2
    coordinates: [  0.596966638681721,  0.315521780401885,  0.437225507331723 ]
    mass: 6.940000
    reduced_to: 1
  - symbol: Li # 3
    coordinates: [  0.096966638681721,  0.815521780401885,  0.437225507331723 ]
    mass: 6.940000
    reduced_to: 1
  - symbol: Li # 4
    coordinates: [  0.596966638681721,  0.815521780401885,  0.437225507331723 ]
    mass: 6.940000
    reduced_to: 1
  - symbol: Li # 5
    coordinates: [  0.090968419850996,  0.018015352793757,  0.036883429150277 ]
    mass: 6.940000
    reduced_to: 5
  - symbol: Li # 6
    coordinates: [  0.590968419850996,  0.018015352793757,  0.036883429150277 ]
    mass: 6.940000
    reduced_to: 5
  - symbol: Li # 7
    coordinates: [  0.090968419850996,  0.518015352793757,  0.036883429150277 ]
    mass: 6.940000
    reduced_to: 5
  - symbol: Li # 8
    coordinates: [  0.590968419850996,  0.518015352793757,  0.036883429150277 ]
    mass: 6.940000
    reduced_to: 5
  - symbol: Li # 9
    coordinates: [  0.348743665817818,  0.016788522991994,  0.542288847375134 ]
    mass: 6.940000
    reduced_to: 9
  - symbol: Li # 10
    coordinates: [  0.848743665817818,  0.016788522991994,  0.542288847375134 ]
    mass: 6.940000
    reduced_to: 9
  - symbol: Li # 11
    coordinates: [  0.348743665817818,  0.516788522991994,  0.542288847375134 ]
    mass: 6.940000
    reduced_to: 9
  - symbol: Li # 12
    coordinates: [  0.848743665817818,  0.516788522991994,  0.542288847375134 ]
    mass: 6.940000
    reduced_to: 9
  - symbol: Li # 13
    coordinates: [  0.220911299398902,  0.070506289900502,  0.691369214336218 ]
    mass: 6.940000
    reduced_to: 13
  - symbol: Li # 14
    coordinates: [  0.720911299398902,  0.070506289900502,  0.691369214336218 ]
    mass: 6.940000
    reduced_to: 13
  - symbol: Li # 15
    coordinates: [  0.220911299398902,  0.570506289900502,  0.691369214336218 ]
    mass: 6.940000
    reduced_to: 13
  - symbol: Li # 16
    coordinates: [  0.720911299398902,  0.570506289900502,  0.691369214336218 ]
    mass: 6.940000
    reduced_to: 13
  - symbol: Li # 17
    coordinates: [  0.356463726195628,  0.124081545041369,  0.344026280167657 ]
    mass: 6.940000
    reduced_to: 17
  - symbol: Li # 18
    coordinates: [  0.856463726195628,  0.124081545041369,  0.344026280167657 ]
    mass: 6.940000
    reduced_to: 17
  - symbol: Li # 19
    coordinates: [  0.356463726195628,  0.624081545041369,  0.344026280167657 ]
    mass: 6.940000
    reduced_to: 17
  - symbol: Li # 20
    coordinates: [  0.856463726195628,  0.624081545041369,  0.344026280167657 ]
    mass: 6.940000
    reduced_to: 17
  - symbol: Li # 21
    coordinates: [  0.352403280145426,  0.326361818077135,  0.943922595276231 ]
    mass: 6.940000
    reduced_to: 21
  - symbol: Li # 22
    coordinates: [  0.852403280145426,  0.326361818077135,  0.943922595276231 ]
    mass: 6.940000
    reduced_to: 21
  - symbol: Li # 23
    coordinates: [  0.352403280145426,  0.826361818077135,  0.943922595276231 ]
    mass: 6.940000
    reduced_to: 21
  - symbol: Li # 24
    coordinates: [  0.852403280145426,  0.826361818077135,  0.943922595276231 ]
    mass: 6.940000
    reduced_to: 21
  - symbol: Sn # 25
    coordinates: [  0.341190403373679,  0.423643047161725,  0.738225069348488 ]
    mass: 118.710000
    reduced_to: 25
  - symbol: Sn # 26
    coordinates: [  0.841190403373679,  0.423643047161725,  0.738225069348488 ]
    mass: 118.710000
    reduced_to: 25
  - symbol: Sn # 27
    coordinates: [  0.341190403373679,  0.923643047161725,  0.738225069348488 ]
    mass: 118.710000
    reduced_to: 25
  - symbol: Sn # 28
    coordinates: [  0.841190403373679,  0.923643047161725,  0.738225069348488 ]
    mass: 118.710000
    reduced_to: 25
  - symbol: Sn # 29
    coordinates: [  0.221515948600031,  0.263969627425162,  0.291883055150278 ]
    mass: 118.710000
    reduced_to: 29
  - symbol: Sn # 30
    coordinates: [  0.721515948600031,  0.263969627425162,  0.291883055150278 ]
    mass: 118.710000
    reduced_to: 29
  - symbol: Sn # 31
    coordinates: [  0.221515948600031,  0.763969627425162,  0.291883055150278 ]
    mass: 118.710000
    reduced_to: 29
  - symbol: Sn # 32
    coordinates: [  0.721515948600031,  0.763969627425162,  0.291883055150278 ]
    mass: 118.710000
    reduced_to: 29
  - symbol: Sn # 33
    coordinates: [  0.108826228606149,  0.221680287233253,  0.645829929296022 ]
    mass: 118.710000
    reduced_to: 33
  - symbol: Sn # 34
    coordinates: [  0.608826228606149,  0.221680287233253,  0.645829929296022 ]
    mass: 118.710000
    reduced_to: 33
  - symbol: Sn # 35
    coordinates: [  0.108826228606149,  0.721680287233254,  0.645829929296022 ]
    mass: 118.710000
    reduced_to: 33
  - symbol: Sn # 36
    coordinates: [  0.608826228606149,  0.721680287233254,  0.645829929296022 ]
    mass: 118.710000
    reduced_to: 33
  - symbol: Sn # 37
    coordinates: [  0.095769109179954,  0.118499767350032,  0.840318929091820 ]
    mass: 118.710000
    reduced_to: 37
  - symbol: Sn # 38
    coordinates: [  0.595769109179954,  0.118499767350032,  0.840318929091820 ]
    mass: 118.710000
    reduced_to: 37
  - symbol: Sn # 39
    coordinates: [  0.095769109179954,  0.618499767350032,  0.840318929091820 ]
    mass: 118.710000
    reduced_to: 37
  - symbol: Sn # 40
    coordinates: [  0.595769109179954,  0.618499767350032,  0.840318929091820 ]
    mass: 118.710000
    reduced_to: 37
  - symbol: Sn # 41
    coordinates: [  0.472183731566662,  0.367300706019461,  0.587513981027179 ]
    mass: 118.710000
    reduced_to: 41
  - symbol: Sn # 42
    coordinates: [  0.972183731566662,  0.367300706019461,  0.587513981027179 ]
    mass: 118.710000
    reduced_to: 41
  - symbol: Sn # 43
    coordinates: [  0.472183731566662,  0.867300706019461,  0.587513981027179 ]
    mass: 118.710000
    reduced_to: 41
  - symbol: Sn # 44
    coordinates: [  0.972183731566662,  0.867300706019461,  0.587513981027179 ]
    mass: 118.710000
    reduced_to: 41
  - symbol: Sn # 45
    coordinates: [  0.349705455480060,  0.223544085844755,  0.135118286875016 ]
    mass: 118.710000
    reduced_to: 45
  - symbol: Sn # 46
    coordinates: [  0.849705455480060,  0.223544085844755,  0.135118286875016 ]
    mass: 118.710000
    reduced_to: 45
  - symbol: Sn # 47
    coordinates: [  0.349705455480060,  0.723544085844755,  0.135118286875016 ]
    mass: 118.710000
    reduced_to: 45
  - symbol: Sn # 48
    coordinates: [  0.849705455480060,  0.723544085844755,  0.135118286875016 ]
    mass: 118.710000
    reduced_to: 45
  - symbol: Sn # 49
    coordinates: [  0.101658666010977,  0.420383333557851,  0.253474554746519 ]
    mass: 118.710000
    reduced_to: 49
  - symbol: Sn # 50
    coordinates: [  0.601658666010978,  0.420383333557851,  0.253474554746519 ]
    mass: 118.710000
    reduced_to: 49
  - symbol: Sn # 51
    coordinates: [  0.101658666010977,  0.920383333557851,  0.253474554746519 ]
    mass: 118.710000
    reduced_to: 49
  - symbol: Sn # 52
    coordinates: [  0.601658666010978,  0.920383333557851,  0.253474554746519 ]
    mass: 118.710000
    reduced_to: 49
  - symbol: Sn # 53
    coordinates: [  0.474764490916212,  0.472388013047561,  0.394704058611899 ]
    mass: 118.710000
    reduced_to: 53
  - symbol: Sn # 54
    coordinates: [  0.974764490916212,  0.472388013047561,  0.394704058611899 ]
    mass: 118.710000
    reduced_to: 53
  - symbol: Sn # 55
    coordinates: [  0.474764490916212,  0.972388013047561,  0.394704058611899 ]
    mass: 118.710000
    reduced_to: 53
  - symbol: Sn # 56
    coordinates: [  0.974764490916212,  0.972388013047561,  0.394704058611899 ]
    mass: 118.710000
    reduced_to: 53
  - symbol: Sn # 57
    coordinates: [  0.475689399458670,  0.070937691462290,  0.192676792560358 ]
    mass: 118.710000
    reduced_to: 57
  - symbol: Sn # 58
    coordinates: [  0.975689399458670,  0.070937691462290,  0.192676792560358 ]
    mass: 118.710000
    reduced_to: 57
  - symbol: Sn # 59
    coordinates: [  0.475689399458670,  0.570937691462290,  0.192676792560358 ]
    mass: 118.710000
    reduced_to: 57
  - symbol: Sn # 60
    coordinates: [  0.975689399458670,  0.570937691462290,  0.192676792560358 ]
    mass: 118.710000
    reduced_to: 57
  - symbol: Sn # 61
    coordinates: [  0.228393769879617,  0.383784035991497,  0.105528050627047 ]
    mass: 118.710000
    reduced_to: 61
  - symbol: Sn # 62
    coordinates: [  0.728393769879617,  0.383784035991497,  0.105528050627047 ]
    mass: 118.710000
    reduced_to: 61
  - symbol: Sn # 63
    coordinates: [  0.228393769879617,  0.883784035991497,  0.105528050627047 ]
    mass: 118.710000
    reduced_to: 61
  - symbol: Sn # 64
    coordinates: [  0.728393769879617,  0.883784035991497,  0.105528050627047 ]
    mass: 118.710000
    reduced_to: 61
  - symbol: Sn # 65
    coordinates: [  0.222988490831338,  0.472822443381813,  0.894140230784137 ]
    mass: 118.710000
    reduced_to: 65
  - symbol: Sn # 66
    coordinates: [  0.722988490831338,  0.472822443381813,  0.894140230784137 ]
    mass: 118.710000
    reduced_to: 65
  - symbol: Sn # 67
    coordinates: [  0.222988490831338,  0.972822443381813,  0.894140230784137 ]
    mass: 118.710000
    reduced_to: 65
  - symbol: Sn # 68
    coordinates: [  0.722988490831338,  0.972822443381813,  0.894140230784137 ]
    mass: 118.710000
    reduced_to: 65
  - symbol: Sn # 69
    coordinates: [  0.471480844041919,  0.271559463692314,  0.787828667184217 ]
    mass: 118.710000
    reduced_to: 69
  - symbol: Sn # 70
    coordinates: [  0.971480844041919,  0.271559463692314,  0.787828667184217 ]
    mass: 118.710000
    reduced_to: 69
  - symbol: Sn # 71
    coordinates: [  0.471480844041919,  0.771559463692314,  0.787828667184217 ]
    mass: 118.710000
    reduced_to: 69
  - symbol: Sn # 72
    coordinates: [  0.971480844041919,  0.771559463692314,  0.787828667184217 ]
    mass: 118.710000
    reduced_to: 69
  - symbol: Sn # 73
    coordinates: [  0.465642217943915,  0.168326929190755,  0.979949390187106 ]
    mass: 118.710000
    reduced_to: 73
  - symbol: Sn # 74
    coordinates: [  0.965642217943915,  0.168326929190755,  0.979949390187106 ]
    mass: 118.710000
    reduced_to: 73
  - symbol: Sn # 75
    coordinates: [  0.465642217943915,  0.668326929190755,  0.979949390187106 ]
    mass: 118.710000
    reduced_to: 73
  - symbol: Sn # 76
    coordinates: [  0.965642217943915,  0.668326929190755,  0.979949390187106 ]
    mass: 118.710000
    reduced_to: 73
  - symbol: Sn # 77
    coordinates: [  0.228652422869379,  0.164096185979520,  0.490637835656066 ]
    mass: 118.710000
    reduced_to: 77
  - symbol: Sn # 78
    coordinates: [  0.728652422869379,  0.164096185979520,  0.490637835656066 ]
    mass: 118.710000
    reduced_to: 77
  - symbol: Sn # 79
    coordinates: [  0.228652422869379,  0.664096185979520,  0.490637835656066 ]
    mass: 118.710000
    reduced_to: 77
  - symbol: Sn # 80
    coordinates: [  0.728652422869379,  0.664096185979520,  0.490637835656066 ]
    mass: 118.710000
    reduced_to: 77

displacements:
- atom:    1
  displacement:
    [   0.0100000000000000,  0.0000000000000000,  0.0000000000000000 ]
  forces:
  - [  -0.0031980387866497,  0.0037973802536726,  0.0088652307167649 ]
  - [   0.0096330372616649,  0.0047486517578363,  0.0089831296354532 ]
  - [   0.0096429381519556,  0.0047526862472296,  0.0089789181947708 ]
  - [   0.0096463896334171,  0.0047587361186743,  0.0089908922091126 ]
  - [  -0.0135706514120102,  0.0109293013811111,  0.0178143680095673 ]
  - [  -0.0134751833975315,  0.0111400168389082,  0.0180507600307465 ]
  - [  -0.0135022588074207,  0.0109250154346228,  0.0180699937045574 ]
  - [  -0.0138893062248826,  0.0111338216811419,  0.0176086910068989 ]
  - [  -0.0229707267135382,  0.0136053478345275,  0.0152239194139838 ]
  - [  -0.0228002630174160,  0.0133485887199640,  0.0153719149529934 ]
  - [  -0.0227868407964706,  0.0134898405522108,  0.0153538603335619 ]
  - [  -0.0227603800594807,  0.0132643803954124,  0.0152356270700693 ]
  - [  -0.0000420380383730,  0.0056213326752186, -0.0026682575698942 ]
  - [  -0.0000131223350763,  0.0057422365061939, -0.0026366114616394 ]
  - [  -0.0000407649204135,  0.0060048913583159, -0.0025631776079535 ]
  - [  -0.0000649467110634,  0.0057274717837572, -0.0026823766529560 ]
  - [   0.0035372553393245, -0.0005751596763730, -0.0056128390133381 ]
  - [   0.0035533164627850, -0.0002889349125326, -0.0056020990014076 ]
  - [   0.0034446623176336, -0.0005609015934169, -0.0055630300194025 ]
  - [   0.0032963491976261, -0.0002995147369802, -0.0056746909394860 ]
  - [   0.0137980869039893, -0.0013336921110749, -0.0068263700231910 ]
  - [   0.0137274861335754, -0.0013690302148461, -0.0067736050114036 ]
  - [   0.0138874873518944, -0.0012750290334225, -0.0068538486957550 ]
  - [   0.0139109529554844, -0.0014224238693714, -0.0069373361766338 ]
  - [  -0.0050301533192396,  0.0152007061988115, -0.0027610100805759 ]
  - [  -0.0076221562922001,  0.0150353796780109, -0.0055725644342601 ]
  - [  -0.0078823007643223,  0.0150333195924759, -0.0054708779789507 ]
  - [  -0.0078999754041433,  0.0149769950658083, -0.0055714575573802 ]
  - [  -0.0072598513215780, -0.0286049619317055,  0.0033452585339546 ]
  - [  -0.0111080780625343, -0.0283570028841496,  0.0046518426388502 ]
  - [  -0.0111988186836243, -0.0284117534756660,  0.0046549253165722 ]
  - [  -0.0111877731978893, -0.0284268278628588,  0.0046817446127534 ]
  - [   0.0132412295788527, -0.0068737976253033,  0.0013346902560443 ]
  - [   0.0131901465356350, -0.0084504382684827,  0.0020887006539851 ]
  - [   0.0131594706326723, -0.0084085930138826,  0.0020759864710271 ]
  - [   0.0131566170603037, -0.0084115024656057,  0.0021021149586886 ]
  - [   0.0208117812871933, -0.0083907973021269, -0.0415253639221191 ]
  - [   0.0208266954869032, -0.0083615314215422, -0.0414418615400791 ]
  - [   0.0208539627492428, -0.0083105973899364, -0.0414012186229229 ]
  - [   0.0208201520144939, -0.0082848761230707, -0.0414035543799400 ]
  - [  -0.0088975885882974,  0.0034672119654715, -0.0129934027791023 ]
  - [  -0.0057793725281954,  0.0030332808382809, -0.0144155612215400 ]
  - [  -0.0087937228381634,  0.0034502698108554, -0.0129795670509338 ]
  - [  -0.0087908012792468,  0.0034585250541568, -0.0129887014627457 ]
  - [  -0.0149748437106609, -0.0105617772787809, -0.0096765272319317 ]
  - [  -0.0130875781178474, -0.0106290336698294, -0.0072510321624577 ]
  - [  -0.0151451341807842, -0.0105776470154524, -0.0095917433500290 ]
  - [  -0.0151452273130417, -0.0105451121926308, -0.0095859775319695 ]
  - [   0.0123516749590635,  0.0098718143999577,  0.0074636265635490 ]
  - [   0.0119235226884484,  0.0081063723191619,  0.0082867871969938 ]
  - [   0.0118999956175685,  0.0081339869648218,  0.0082906465977430 ]
  - [   0.0119136041030288,  0.0081473346799612,  0.0082849208265543 ]
  - [   0.0001435857266188, -0.0075772935524583,  0.0034284219145775 ]
  - [   0.0010305922478437, -0.0091122407466173,  0.0035050578881055 ]
  - [   0.0001530200242996, -0.0075782155618072,  0.0033987229689956 ]
  - [   0.0001780604943633, -0.0075385132804513,  0.0034109903499484 ]
  - [  -0.0062042633071542,  0.0053352480754256,  0.0094999298453331 ]
  - [  -0.0062288669869304,  0.0060526533052325,  0.0100611671805382 ]
  - [  -0.0062577063217759,  0.0053185573779047,  0.0095486370846629 ]
  - [  -0.0062384246848524,  0.0053369612433016,  0.0095567237585783 ]
  - [   0.0342785306274891,  0.0283537395298481,  0.0166129358112812 ]
  - [   0.0342490226030350,  0.0282753594219685,  0.0164780914783478 ]
  - [   0.0343198254704475,  0.0282899066805840,  0.0165393538773060 ]
  - [   0.0343421995639801,  0.0283136516809464,  0.0165544543415308 ]
  - [  -0.0036171064712107,  0.0003382314462215, -0.0070667732506990 ]
  - [  -0.0035585355944932,  0.0004123009275645, -0.0064071742817760 ]
  - [  -0.0035519674420357,  0.0004085043910891, -0.0064541101455688 ]
  - [  -0.0035613141953945,  0.0004781135357916, -0.0064245248213410 ]
  - [  -0.0237991120666265, -0.0067990738898516,  0.0059278421103954 ]
  - [  -0.0235591586679220, -0.0069739734753966,  0.0061237066984177 ]
  - [  -0.0236184801906347, -0.0069458000361919,  0.0060047898441553 ]
  - [  -0.0236485768109560, -0.0069173965603113,  0.0060014501214027 ]
  - [  -0.0016111601144075,  0.0034690743777901, -0.0172102693468332 ]
  - [  -0.0018515009433031,  0.0034342412836850, -0.0177832581102848 ]
  - [  -0.0016501341015100,  0.0034594330936670, -0.0172890648245811 ]
  - [  -0.0016695763915777,  0.0034805536270142, -0.0172181017696857 ]
  - [   0.0076256878674030, -0.0284374319016933,  0.0157828815281391 ]
  - [   0.0069871097803116, -0.0270261168479919,  0.0155178345739841 ]
  - [   0.0070169344544411, -0.0270188935101032,  0.0155678726732731 ]
  - [   0.0069923084229231, -0.0270055402070284,  0.0155485104769468 ]
- atom:    1
  displacement:
    [  -0.0100000000000000,  0.0000000000000000,  0.0000000000000000 ]
  forces:
  - [   0.0224597416818142,  0.0056774541735649,  0.0090645765885711 ]
  - [   0.0096660135313869,  0.0047435043379664,  0.0089414790272713 ]
  - [   0.0096560530364513,  0.0047389762476087,  0.0089482162147760 ]
  - [   0.0096535068005323,  0.0047335168346763,  0.0089353211224079 ]
  - [  -0.0133683159947395,  0.0113613689318299,  0.0182538125663996 ]
  - [  -0.0134627902880311,  0.0111540649086237,  0.0180223416537046 ]
  - [  -0.0134356748312712,  0.0113660097122192,  0.0180012173950672 ]
  - [  -0.0130543876439333,  0.0111585706472397,  0.0184569135308266 ]
  - [  -0.0226437002420425,  0.0130500467494130,  0.0152965467423201 ]
  - [  -0.0228089299052954,  0.0133005566895008,  0.0151511095464230 ]
  - [  -0.0228200331330299,  0.0131635637953877,  0.0151712875813246 ]
  - [  -0.0228497125208378,  0.0133845582604408,  0.0152869848534465 ]
  - [  -0.0001053884625435,  0.0058617680333555, -0.0026676561683416 ]
  - [  -0.0001324480399489,  0.0057392488233745, -0.0026965173892677 ]
  - [  -0.0001087244600058,  0.0054750335402787, -0.0027746171690524 ]
  - [  -0.0000819740816951,  0.0057537890970707, -0.0026538507081568 ]
  - [   0.0033583967015147, -0.0005976813845336, -0.0057062227278948 ]
  - [   0.0033373758196831, -0.0008930917829275, -0.0057179699651897 ]
  - [   0.0034514190629125, -0.0006136312149465, -0.0057558477856219 ]
  - [   0.0036037885583937, -0.0008816206827760, -0.0056434427388012 ]
  - [   0.0140729919075966, -0.0012290300801396, -0.0068641537800431 ]
  - [   0.0141512630507350, -0.0011969637125731, -0.0069160796701908 ]
  - [   0.0139869898557663, -0.0012889588251710, -0.0068338196724653 ]
  - [   0.0139615498483181, -0.0011401176452637, -0.0067521492019296 ]
  - [  -0.0106357671320438,  0.0148481708019972, -0.0081606991589069 ]
  - [  -0.0081094559282064,  0.0150116644799709, -0.0054239309392869 ]
  - [  -0.0078420937061310,  0.0150140300393105, -0.0055268504656851 ]
  - [  -0.0078257657587528,  0.0150704141706228, -0.0054253963753581 ]
  - [  -0.0150184892117977, -0.0282360389828682,  0.0059263510629535 ]
  - [  -0.0112968925386667, -0.0284790303558111,  0.0046772388741374 ]
  - [  -0.0112089281901717, -0.0284189060330391,  0.0046723457053304 ]
  - [  -0.0112179312855005, -0.0284042246639729,  0.0046464130282402 ]
  - [   0.0131049361079931, -0.0099645406007767,  0.0028256014920771 ]
  - [   0.0131422858685255, -0.0083739403635263,  0.0020652702078223 ]
  - [   0.0131709389388561, -0.0084168985486031,  0.0020786819513887 ]
  - [   0.0131752602756023, -0.0084132160991430,  0.0020528608001769 ]
  - [   0.0208216030150652, -0.0082462821155787, -0.0412679389119148 ]
  - [   0.0208076890558004, -0.0082737300544977, -0.0413501486182213 ]
  - [   0.0207815915346146, -0.0083314618095756, -0.0413959361612797 ]
  - [   0.0208182446658611, -0.0083517469465733, -0.0413891002535820 ]
  - [  -0.0087113231420517,  0.0034848386421800, -0.0129548106342554 ]
  - [  -0.0119238775223494,  0.0039260582998395, -0.0114821027964354 ]
  - [  -0.0088113956153393,  0.0035013491287827, -0.0129688996821642 ]
  - [  -0.0088117849081755,  0.0034930319525301, -0.0129591906443238 ]
  - [  -0.0152653194963932, -0.0105674928054214, -0.0095448363572359 ]
  - [  -0.0172035656869411, -0.0104942526668310, -0.0120379645377398 ]
  - [  -0.0150988101959229, -0.0105507634580135, -0.0096290465444326 ]
  - [  -0.0150988847017288, -0.0105839222669601, -0.0096354205161333 ]
  - [   0.0114700142294168,  0.0063931783661246,  0.0090723931789398 ]
  - [   0.0119057819247246,  0.0081405583769083,  0.0082570426166058 ]
  - [   0.0119305532425642,  0.0081156399101019,  0.0082524977624416 ]
  - [   0.0119159379974008,  0.0081038419157267,  0.0082586351782084 ]
  - [   0.0001440448686481, -0.0075584747828543,  0.0034019071608782 ]
  - [  -0.0007501197978854, -0.0059929215349257,  0.0033189421519637 ]
  - [   0.0001351051032543, -0.0075572137720883,  0.0034321022685617 ]
  - [   0.0001091510057449, -0.0075961146503687,  0.0034203068353236 ]
  - [  -0.0061634909361601,  0.0053008329123259,  0.0095335831865668 ]
  - [  -0.0061286073178053,  0.0045918375253677,  0.0089770443737507 ]
  - [  -0.0061121918261051,  0.0053210919722915,  0.0094808191061020 ]
  - [  -0.0061294059269130,  0.0053022657521069,  0.0094746844843030 ]
  - [   0.0343645699322224,  0.0282589420676231,  0.0165048073977232 ]
  - [   0.0343960113823414,  0.0283357612788677,  0.0166408065706491 ]
  - [   0.0343229621648788,  0.0283227972686291,  0.0165769830346107 ]
  - [   0.0343006178736687,  0.0282971821725368,  0.0165645033121109 ]
  - [  -0.0035132709890604,  0.0004824129864573, -0.0058101559989154 ]
  - [  -0.0035811048001051,  0.0004120017401874, -0.0064663607627153 ]
  - [  -0.0035867164842784,  0.0004137409850955, -0.0064196307212114 ]
  - [  -0.0035748882219195,  0.0003444044850767, -0.0064486591145396 ]
  - [  -0.0234726779162884, -0.0070852385833859,  0.0060960054397583 ]
  - [  -0.0237110108137131, -0.0069107729941607,  0.0058984868228436 ]
  - [  -0.0236481893807650, -0.0069398060441017,  0.0060176495462656 ]
  - [  -0.0236172564327717, -0.0069698896259069,  0.0060222204774618 ]
  - [  -0.0017032399773598,  0.0034869783557951, -0.0172515325248241 ]
  - [  -0.0014690347015858,  0.0035243202000856, -0.0166663583368063 ]
  - [  -0.0016696341335773,  0.0034939758479595, -0.0171758364886045 ]
  - [  -0.0016446057707071,  0.0034749950282276, -0.0172413624823093 ]
  - [   0.0063437577337027, -0.0255936533212662,  0.0153090804815292 ]
  - [   0.0069805551320314, -0.0269828774034977,  0.0155694317072630 ]
  - [   0.0069515742361546, -0.0269908104091883,  0.0155195277184248 ]
  - [   0.0069754738360643, -0.0270029827952385,  0.0155404936522245 ]
- atom:    1
  displacement:
    [   0.0001448465282677,  0.0099989509191339,  0.0000000000000000 ]
  forces:
  - [   0.0085303848609328, -0.0061730183660984,  0.0099867545068264 ]
  - [   0.0096519580110908,  0.0047529842704535,  0.0089653609320521 ]
  - [   0.0096560642123222,  0.0048088738694787,  0.0089536951854825 ]
  - [   0.0096624465659261,  0.0047482028603554,  0.0089782997965813 ]
  - [  -0.0135297514498234,  0.0110819237306714,  0.0181353222578764 ]
  - [  -0.0134622706100345,  0.0111526651307940,  0.0180416088551283 ]