phonopy:
  version: "2.37.1"
  frequency_unit_conversion_factor: 15.633302
  symmetry_tolerance: 1.00000e-05

space_group:
  type: "P1"
  number: 1
  Hall_symbol: "P 1"

primitive_matrix:
- [  0.000000000000000, -1.000000000000000, -0.000000000000000 ]
- [ -1.000000000000000,  0.000000000000000, -0.000000000000000 ]
- [  0.000000000000000,  0.000000000000000, -1.000000000000000 ]

supercell_matrix:
- [   3,   0,   0 ]
- [   0,   3,   0 ]
- [   0,   0,   2 ]

primitive_cell:
  lattice:
  - [    -2.268689889922675,    -3.932339999975857,     0.000000000000000 ] # a
  - [    -4.541478847371510,     0.000000000000000,     0.000000000000000 ] # b
  - [    -2.266608475676851,    -1.309930747090585,    -7.410144415465088 ] # c
  points:
  - symbol: Li # 1
    coordinates: [  0.571569402698082,  0.553681075817893,  0.246056696305782 ]
    mass: 6.940000
  - symbol: Li # 2
    coordinates: [  0.073530534756936,  0.059287086985976,  0.730211909824798 ]
    mass: 6.940000
  - symbol: Ga # 3
    coordinates: [  0.317112691372655,  0.302131899571101,  0.000861429723180 ]
    mass: 69.723000
  - symbol: Ga # 4
    coordinates: [  0.202562863024489,  0.185339745099366,  0.351095748223610 ]
    mass: 69.723000
  - symbol: Sn # 5
    coordinates: [  0.826821332605250,  0.810057555986853,  0.476641833570541 ]
    mass: 118.710000
  - symbol: Sn # 6
    coordinates: [  0.692115628396654,  0.678223211083011,  0.872866836214230 ]
    mass: 118.710000
  reciprocal_lattice: # without 2pi
  - [    -0.000000000000000,    -0.254301510043928,     0.044954234136501 ] # a*
  - [    -0.220192592238710,     0.127035990746195,     0.044895487446864 ] # b*
  - [    -0.000000000000000,    -0.000000000000000,    -0.134950136452534 ] # c*

unit_cell:
  lattice:
  - [     4.541478847371510,     0.000000000000000,     0.000000000000000 ] # a
  - [     2.268689889922675,     3.932339999975856,     0.000000000000000 ] # b
  - [     2.266608475676851,     1.309930747090585,     7.410144415465090 ] # c
  points:
  - symbol: Li # 1
    coordinates: [  0.446318924182107,  0.428430597301919,  0.753943303694218 ]
    mass: 6.940000
    reduced_to: 1
  - symbol: Li # 2
    coordinates: [  0.940712913014024,  0.926469465243064,  0.269788090175202 ]
    mass: 6.940000
    reduced_to: 2
  - symbol: Ga # 3
    coordinates: [  0.697868100428899,  0.682887308627345,  0.999138570276820 ]
    mass: 69.723000
    reduced_to: 3
  - symbol: Ga # 4
    coordinates: [  0.814660254900634,  0.797437136975511,  0.648904251776390 ]
    mass: 69.723000
    reduced_to: 4
  - symbol: Sn # 5
    coordinates: [  0.189942444013147,  0.173178667394750,  0.523358166429459 ]
    mass: 118.710000
    reduced_to: 5
  - symbol: Sn # 6
    coordinates: [  0.321776788916989,  0.307884371603346,  0.127133163785770 ]
    mass: 118.710000
    reduced_to: 6

supercell:
  lattice:
  - [    13.624436542114529,     0.000000000000000,     0.000000000000000 ] # a
  - [     6.806069669768025,    11.797019999927569,     0.000000000000000 ] # b
  - [     4.533216951353703,     2.619861494181171,    14.820288830930179 ] # c
  points:
  - symbol: Li # 1
    coordinates: [  0.148772974727369,  0.142810199100640,  0.376971651847109 ]
    mass: 6.940000
    reduced_to: 1
  - symbol: Li # 2
    coordinates: [  0.482106308060702,  0.142810199100640,  0.376971651847109 ]
    mass: 6.940000
    reduced_to: 1
  - symbol: Li # 3
    coordinates: [  0.815439641394035,  0.142810199100640,  0.376971651847109 ]
    mass: 6.940000
    reduced_to: 1
  - symbol: Li # 4
    coordinates: [  0.148772974727369,  0.476143532433973,  0.376971651847109 ]
    mass: 6.940000
    reduced_to: 1
  - symbol: Li # 5
    coordinates: [  0.482106308060702,  0.476143532433973,  0.376971651847109 ]
    mass: 6.940000
    reduced_to: 1
  - symbol: Li # 6
    coordinates: [  0.815439641394035,  0.476143532433973,  0.376971651847109 ]
    mass: 6.940000
    reduced_to: 1
  - symbol: Li # 7
    coordinates: [  0.148772974727369,  0.809476865767306,  0.376971651847109 ]
    mass: 6.940000
    reduced_to: 1
  - symbol: Li # 8
    coordinates: [  0.482106308060702,  0.809476865767306,  0.376971651847109 ]
    mass: 6.940000
    reduced_to: 1
  - symbol: Li # 9
    coordinates: [  0.815439641394035,  0.809476865767306,  0.376971651847109 ]
    mass: 6.940000
    reduced_to: 1
  - symbol: Li # 10
    coordinates: [  0.148772974727369,  0.142810199100640,  0.876971651847109 ]
    mass: 6.940000
    reduced_to: 1
  - symbol: Li # 11
    coordinates: [  0.482106308060702,  0.142810199100640,  0.876971651847109 ]
    mass: 6.940000
    reduced_to: 1
  - symbol: Li # 12
    coordinates: [  0.815439641394035,  0.142810199100640,  0.876971651847109 ]
    mass: 6.940000
    reduced_to: 1
  - symbol: Li # 13
    coordinates: [  0.148772974727369,  0.476143532433973,  0.876971651847109 ]
    mass: 6.940000
    reduced_to: 1
  - symbol: Li # 14
    coordinates: [  0.482106308060702,  0.476143532433973,  0.876971651847109 ]
    mass: 6.940000
    reduced_to: 1
  - symbol: Li # 15
    coordinates: [  0.815439641394035,  0.476143532433973,  0.876971651847109 ]
    mass: 6.940000
    reduced_to: 1
  - symbol: Li # 16
    coordinates: [  0.148772974727369,  0.809476865767306,  0.876971651847109 ]
    mass: 6.940000
    reduced_to: 1
  - symbol: Li # 17
    coordinates: [  0.482106308060702,  0.809476865767306,  0.876971651847109 ]
    mass: 6.940000
    reduced_to: 1
  - symbol: Li # 18
    coordinates: [  0.815439641394035,  0.809476865767306,  0.876971651847109 ]
    mass: 6.940000
    reduced_to: 1
  - symbol: Li # 19
    coordinates: [  0.313570971004675,  0.308823155081021,  0.134894045087601 ]
    mass: 6.940000
    reduced_to: 19
  - symbol: Li # 20
    coordinates: [  0.646904304338008,  0.308823155081021,  0.134894045087601 ]
    mass: 6.940000
    reduced_to: 19
  - symbol: Li # 21
    coordinates: [  0.980237637671341,  0.308823155081021,  0.134894045087601 ]
    mass: 6.940000
    reduced_to: 19
  - symbol: Li # 22
    coordinates: [  0.313570971004675,  0.642156488414354,  0.134894045087601 ]
    mass: 6.940000
    reduced_to: 19
  - symbol: Li # 23
    coordinates: [  0.646904304338008,  0.642156488414354,  0.134894045087601 ]
    mass: 6.940000
    reduced_to: 19
  - symbol: Li # 24
    coordinates: [  0.980237637671341,  0.642156488414354,  0.134894045087601 ]
    mass: 6.940000
    reduced_to: 19
  - symbol: Li # 25
    coordinates: [  0.313570971004675,  0.975489821747688,  0.134894045087601 ]
    mass: 6.940000
    reduced_to: 19
  - symbol: Li # 26
    coordinates: [  0.646904304338008,  0.975489821747688,  0.134894045087601 ]
    mass: 6.940000
    reduced_to: 19
  - symbol: Li # 27
    coordinates: [  0.980237637671341,  0.975489821747688,  0.134894045087601 ]
    mass: 6.940000
    reduced_to: 19
  - symbol: Li # 28
    coordinates: [  0.313570971004675,  0.308823155081021,  0.634894045087601 ]
    mass: 6.940000
    reduced_to: 19
  - symbol: Li # 29
    coordinates: [  0.646904304338008,  0.308823155081021,  0.634894045087601 ]
    mass: 6.940000
    reduced_to: 19
  - symbol: Li # 30
    coordinates: [  0.980237637671341,  0.308823155081021,  0.634894045087601 ]
    mass: 6.940000
    reduced_to: 19
  - symbol: Li # 31
    coordinates: [  0.313570971004675,  0.642156488414354,  0.634894045087601 ]
    mass: 6.940000
    reduced_to: 19
  - symbol: Li # 32
    coordinates: [  0.646904304338008,  0.642156488414354,  0.634894045087601 ]
    mass: 6.940000
    reduced_to: 19
  - symbol: Li # 33
    coordinates: [  0.980237637671341,  0.642156488414354,  0.634894045087601 ]
    mass: 6.940000
    reduced_to: 19
  - symbol: Li # 34
    coordinates: [  0.313570971004675,  0.975489821747688,  0.634894045087601 ]
    mass: 6.940000
    reduced_to: 19
  - symbol: Li # 35
    coordinates: [  0.646904304338008,  0.975489821747688,  0.634894045087601 ]
    mass: 6.940000
    reduced_to: 19
  - symbol: Li # 36
    coordinates: [  0.980237637671341,  0.975489821747688,  0.634894045087601 ]
    mass: 6.940000
    reduced_to: 19
  - symbol: Ga # 37
    coordinates: [  0.232622700142966,  0.227629102875782,  0.499569285138410 ]
    mass: 69.723000
    reduced_to: 37
  - symbol: Ga # 38
    coordinates: [  0.565956033476300,  0.227629102875782,  0.499569285138410 ]
    mass: 69.723000
    reduced_to: 37
  - symbol: Ga # 39
    coordinates: [  0.899289366809633,  0.227629102875782,  0.499569285138410 ]
    mass: 69.723000
    reduced_to: 37
  - symbol: Ga # 40
    coordinates: [  0.232622700142966,  0.560962436209115,  0.499569285138410 ]
    mass: 69.723000
    reduced_to: 37
  - symbol: Ga # 41
    coordinates: [  0.565956033476300,  0.560962436209115,  0.499569285138410 ]
    mass: 69.723000
    reduced_to: 37
  - symbol: Ga # 42
    coordinates: [  0.899289366809633,  0.560962436209115,  0.499569285138410 ]
    mass: 69.723000
    reduced_to: 37
  - symbol: Ga # 43
    coordinates: [  0.232622700142966,  0.894295769542448,  0.499569285138410 ]
    mass: 69.723000
    reduced_to: 37
  - symbol: Ga # 44
    coordinates: [  0.565956033476300,  0.894295769542448,  0.499569285138410 ]
    mass: 69.723000
    reduced_to: 37
  - symbol: Ga # 45
    coordinates: [  0.899289366809633,  0.894295769542448,  0.499569285138410 ]
    mass: 69.723000
    reduced_to: 37
  - symbol: Ga # 46
    coordinates: [  0.232622700142966,  0.227629102875782,  0.999569285138410 ]
    mass: 69.723000
    reduced_to: 37
  - symbol: Ga # 47
    coordinates: [  0.565956033476300,  0.227629102875782,  0.999569285138410 ]
    mass: 69.723000
    reduced_to: 37
  - symbol: Ga # 48
    coordinates: [  0.899289366809633,  0.227629102875782,  0.999569285138410 ]
    mass: 69.723000
    reduced_to: 37
  - symbol: Ga # 49
    coordinates: [  0.232622700142966,  0.560962436209115,  0.999569285138410 ]
    mass: 69.723000
    reduced_to: 37
  - symbol: Ga # 50
    coordinates: [  0.565956033476300,  0.560962436209115,  0.999569285138410 ]
    mass: 69.723000
    reduced_to: 37
  - symbol: Ga # 51
    coordinates: [  0.899289366809633,  0.560962436209115,  0.999569285138410 ]
    mass: 69.723000
    reduced_to: 37
  - symbol: Ga # 52
    coordinates: [  0.232622700142966,  0.894295769542448,  0.999569285138410 ]
    mass: 69.723000
    reduced_to: 37
  - symbol: Ga # 53
    coordinates: [  0.565956033476300,  0.894295769542448,  0.999569285138410 ]
    mass: 69.723000
    reduced_to: 37
  - symbol: Ga # 54
    coordinates: [  0.899289366809633,  0.894295769542448,  0.999569285138410 ]
    mass: 69.723000
    reduced_to: 37
  - symbol: Ga # 55
    coordinates: [  0.271553418300211,  0.265812378991837,  0.324452125888195 ]
    mass: 69.723000
    reduced_to: 55
  - symbol: Ga # 56
    coordinates: [  0.604886751633545,  0.265812378991837,  0.324452125888195 ]
    mass: 69.723000
    reduced_to: 55
  - symbol: Ga # 57
    coordinates: [  0.938220084966878,  0.265812378991837,  0.324452125888195 ]
    mass: 69.723000
    reduced_to: 55
  - symbol: Ga # 58
    coordinates: [  0.271553418300211,  0.599145712325170,  0.324452125888195 ]
    mass: 69.723000
    reduced_to: 55
  - symbol: Ga # 59
    coordinates: [  0.604886751633545,  0.599145712325170,  0.324452125888195 ]
    mass: 69.723000
    reduced_to: 55
  - symbol: Ga # 60
    coordinates: [  0.938220084966878,  0.599145712325170,  0.324452125888195 ]
    mass: 69.723000
    reduced_to: 55
  - symbol: Ga # 61
    coordinates: [  0.271553418300211,  0.932479045658504,  0.324452125888195 ]
    mass: 69.723000
    reduced_to: 55
  - symbol: Ga # 62
    coordinates: [  0.604886751633545,  0.932479045658504,  0.324452125888195 ]
    mass: 69.723000
    reduced_to: 55
  - symbol: Ga # 63
    coordinates: [  0.938220084966878,  0.932479045658504,  0.324452125888195 ]
    mass: 69.723000
    reduced_to: 55
  - symbol: Ga # 64
    coordinates: [  0.271553418300211,  0.265812378991837,  0.824452125888195 ]
    mass: 69.723000
    reduced_to: 55
  - symbol: Ga # 65
    coordinates: [  0.604886751633545,  0.265812378991837,  0.824452125888195 ]
    mass: 69.723000
    reduced_to: 55
  - symbol: Ga # 66
    coordinates: [  0.938220084966878,  0.265812378991837,  0.824452125888195 ]
    mass: 69.723000
    reduced_to: 55
  - symbol: Ga # 67
    coordinates: [  0.271553418300211,  0.599145712325170,  0.824452125888195 ]
    mass: 69.723000
    reduced_to: 55
  - symbol: Ga # 68
    coordinates: [  0.604886751633545,  0.599145712325170,  0.824452125888195 ]
    mass: 69.723000
    reduced_to: 55
  - symbol: Ga # 69
    coordinates: [  0.938220084966878,  0.599145712325170,  0.824452125888195 ]
    mass: 69.723000
    reduced_to: 55
  - symbol: Ga # 70
    coordinates: [  0.271553418300211,  0.932479045658504,  0.824452125888195 ]
    mass: 69.723000
    reduced_to: 55
  - symbol: Ga # 71
    coordinates: [  0.604886751633545,  0.932479045658504,  0.824452125888195 ]
    mass: 69.723000
    reduced_to: 55
  - symbol: Ga # 72
    coordinates: [  0.938220084966878,  0.932479045658504,  0.824452125888195 ]
    mass: 69.723000
    reduced_to: 55
  - symbol: Sn # 73
    coordinates: [  0.063314148004382,  0.057726222464917,  0.261679083214730 ]
    mass: 118.710000
    reduced_to: 73
  - symbol: Sn # 74
    coordinates: [  0.396647481337716,  0.057726222464917,  0.261679083214730 ]
    mass: 118.710000
    reduced_to: 73
  - symbol: Sn # 75
    coordinates: [  0.729980814671049,  0.057726222464917,  0.261679083214730 ]
    mass: 118.710000
    reduced_to: 73
  - symbol: Sn # 76
    coordinates: [  0.063314148004382,  0.391059555798250,  0.261679083214730 ]
    mass: 118.710000
    reduced_to: 73
  - symbol: Sn # 77
    coordinates: [  0.396647481337716,  0.391059555798250,  0.261679083214730 ]
    mass: 118.710000
    reduced_to: 73
  - symbol: Sn # 78
    coordinates: [  0.729980814671049,  0.391059555798250,  0.261679083214730 ]
    mass: 118.710000
    reduced_to: 73
  - symbol: Sn # 79
    coordinates: [  0.063314148004382,  0.724392889131583,  0.261679083214730 ]
    mass: 118.710000
    reduced_to: 73
  - symbol: Sn # 80
    coordinates: [  0.396647481337716,  0.724392889131583,  0.261679083214730 ]
    mass: 118.710000
    reduced_to: 73
  - symbol: Sn # 81
    coordinates: [  0.729980814671049,  0.724392889131583,  0.261679083214730 ]
    mass: 118.710000
    reduced_to: 73
  - symbol: Sn # 82
    coordinates: [  0.063314148004382,  0.057726222464917,  0.761679083214730 ]
    mass: 118.710000
    reduced_to: 73
  - symbol: Sn # 83
    coordinates: [  0.396647481337716,  0.057726222464917,  0.761679083214730 ]
    mass: 118.710000
    reduced_to: 73
  - symbol: Sn # 84
    coordinates: [  0.729980814671049,  0.057726222464917,  0.761679083214730 ]
    mass: 118.710000
    reduced_to: 73
  - symbol: Sn # 85
    coordinates: [  0.063314148004382,  0.391059555798250,  0.761679083214730 ]
    mass: 118.710000
    reduced_to: 73
  - symbol: Sn # 86
    coordinates: [  0.396647481337716,  0.391059555798250,  0.761679083214730 ]
    mass: 118.710000
    reduced_to: 73
  - symbol: Sn # 87
    coordinates: [  0.729980814671049,  0.391059555798250,  0.761679083214730 ]
    mass: 118.710000
    reduced_to: 73
  - symbol: Sn # 88
    coordinates: [  0.063314148004382,  0.724392889131583,  0.761679083214730 ]
    mass: 118.710000
    reduced_to: 73
  - symbol: Sn # 89
    coordinates: [  0.396647481337716,  0.724392889131583,  0.761679083214730 ]
    mass: 118.710000
    reduced_to: 73
  - symbol: Sn # 90
    coordinates: [  0.729980814671049,  0.724392889131583,  0.761679083214730 ]
    mass: 118.710000
    reduced_to: 73
  - symbol: Sn # 91
    coordinates: [  0.107258929638996,  0.102628123867782,  0.063566581892885 ]
    mass: 118.710000
    reduced_to: 91
  - symbol: Sn # 92
    coordinates: [  0.440592262972330,  0.102628123867782,  0.063566581892885 ]
    mass: 118.710000
    reduced_to: 91
  - symbol: Sn # 93
    coordinates: [  0.773925596305663,  0.102628123867782,  0.063566581892885 ]
    mass: 118.710000
    reduced_to: 91
  - symbol: Sn # 94
    coordinates: [  0.107258929638996,  0.435961457201115,  0.063566581892885 ]
    mass: 118.710000
    reduced_to: 91
  - symbol: Sn # 95
    coordinates: [  0.440592262972330,  0.435961457201115,  0.063566581892885 ]
    mass: 118.710000
    reduced_to: 91
  - symbol: Sn # 96
    coordinates: [  0.773925596305663,  0.435961457201115,  0.063566581892885 ]
    mass: 118.710000
    reduced_to: 91
  - symbol: Sn # 97
    coordinates: [  0.107258929638996,  0.769294790534449,  0.063566581892885 ]
    mass: 118.710000
    reduced_to: 91
  - symbol: Sn # 98
    coordinates: [  0.440592262972330,  0.769294790534449,  0.063566581892885 ]
    mass: 118.710000
    reduced_to: 91
  - symbol: Sn # 99
    coordinates: [  0.773925596305663,  0.769294790534449,  0.063566581892885 ]
    mass: 118.710000
    reduced_to: 91
  - symbol: Sn # 100
    coordinates: [  0.107258929638996,  0.102628123867782,  0.563566581892885 ]
    mass: 118.710000
    reduced_to: 91
  - symbol: Sn # 101
    coordinates: [  0.440592262972330,  0.102628123867782,  0.563566581892885 ]
    mass: 118.710000
    reduced_to: 91
  - symbol: Sn # 102
    coordinates: [  0.773925596305663,  0.102628123867782,  0.563566581892885 ]
    mass: 118.710000
    reduced_to: 91
  - symbol: Sn # 103
    coordinates: [  0.107258929638996,  0.435961457201115,  0.563566581892885 ]
    mass: 118.710000
    reduced_to: 91
  - symbol: Sn # 104
    coordinates: [  0.440592262972330,  0.435961457201115,  0.563566581892885 ]
    mass: 118.710000
    reduced_to: 91
  - symbol: Sn # 105
    coordinates: [  0.773925596305663,  0.435961457201115,  0.563566581892885 ]
    mass: 118.710000
    reduced_to: 91
  - symbol: Sn # 106
    coordinates: [  0.107258929638996,  0.769294790534449,  0.563566581892885 ]
    mass: 118.710000
    reduced_to: 91
  - symbol: Sn # 107
    coordinates: [  0.440592262972330,  0.769294790534449,  0.563566581892885 ]
    mass: 118.710000
    reduced_to: 91
  - symbol: Sn # 108
    coordinates: [  0.773925596305663,  0.769294790534449,  0.563566581892885 ]
    mass: 118.710000
    reduced_to: 91

displacements:
- atom:    1
  displacement:
    [   0.0100000000000000,  0.0000000000000000,  0.0000000000000000 ]
  forces:
  - [  -0.0153336357325315,  0.0033950782380998,  0.0670957267284393 ]
  - [   0.0031589863356203,  0.0032665422186255,  0.0669257268309593 ]
  - [   0.0031051007099450,  0.0037450594827533,  0.0671445652842522 ]
  - [   0.0023135642986745,  0.0042469603940845,  0.0667355284094810 ]
  - [   0.0019549257121980,  0.0035136346705258,  0.0670356899499893 ]
  - [   0.0023108329623938,  0.0027989763766527,  0.0673327445983887 ]
  - [   0.0023099903482944,  0.0037594786845148,  0.0668528527021408 ]
  - [   0.0023126490414143,  0.0032669231295586,  0.0672152936458588 ]
  - [   0.0019572398159653,  0.0035127981100231,  0.0670353695750237 ]
  - [   0.0019212723709643,  0.0035337123554200,  0.0671467855572701 ]
  - [   0.0018954434199259,  0.0035013775341213,  0.0669123083353043 ]
  - [   0.0018964393530041,  0.0035032667219639,  0.0670424625277519 ]
  - [   0.0018857070244849,  0.0035086809657514,  0.0670293197035789 ]
  - [   0.0018985143397003,  0.0035078809596598,  0.0670772492885590 ]
  - [   0.0019281962886453,  0.0035219064448029,  0.0669975504279137 ]
  - [   0.0018869010964409,  0.0035084849223495,  0.0670274421572685 ]
  - [   0.0019291890785098,  0.0035217474214733,  0.0670332014560699 ]
  - [   0.0018984649796039,  0.0035088846925646,  0.0670446082949638 ]
  - [   0.0014942488633096,  0.0016076713800430, -0.0545534864068031 ]
  - [   0.0011849268339574,  0.0012535788118839, -0.0537904426455498 ]
  - [   0.0014909268356860,  0.0008972417563200, -0.0530223697423935 ]
  - [   0.0011546388268471,  0.0012715235352516, -0.0537864714860916 ]
  - [   0.0011530965566635,  0.0012358911335468, -0.0537935644388199 ]
  - [   0.0012093195691705,  0.0012538349255919, -0.0537905395030975 ]
  - [   0.0008760651689954,  0.0012537129223347, -0.0537913143634796 ]
  - [   0.0014658420113847,  0.0011102361604571, -0.0540815740823746 ]
  - [   0.0014541842974722,  0.0013898294419050, -0.0535043776035309 ]
  - [   0.0012909136712551,  0.0013194754719734, -0.0536392331123352 ]
  - [   0.0012881448492408,  0.0011887359432876, -0.0539399534463882 ]
  - [   0.0009009763598442,  0.0012549832463264, -0.0537878349423409 ]
  - [   0.0011773952282965,  0.0012532183900476, -0.0537897944450378 ]
  - [   0.0011454019695520,  0.0012629712000489, -0.0538100227713585 ]
  - [   0.0011470979079604,  0.0012440998107195, -0.0537712574005127 ]
  - [   0.0014536269009113,  0.0009330669417977, -0.0536245331168175 ]
  - [   0.0011327280662954,  0.0012541776522994, -0.0537907779216766 ]
  - [   0.0014507949817926,  0.0015672771260142, -0.0539500489830971 ]
  - [   0.0051268888637424,  0.0070561626926064,  0.0129416957497597 ]
  - [   0.0043055852875113,  0.0069003496319056,  0.0119948685169220 ]
  - [   0.0051254890859127,  0.0067388331517577,  0.0110468789935112 ]
  - [   0.0042711468413472,  0.0069161839783192,  0.0119235366582870 ]
  - [   0.0042720558121800,  0.0068784672766924,  0.0120645314455032 ]
  - [   0.0039121257141232,  0.0068966513499618,  0.0119936540722847 ]
  - [   0.0048562474548817,  0.0068952925503254,  0.0119963884353638 ]
  - [   0.0040569789707661,  0.0068121664226055,  0.0118070319294930 ]
  - [   0.0040666200220585,  0.0069755092263222,  0.0121824219822884 ]
  - [   0.0042554591782391,  0.0068984217941761,  0.0119995772838593 ]
  - [   0.0041079688817263,  0.0068336408585310,  0.0120537951588631 ]
  - [   0.0041046459227800,  0.0069617554545403,  0.0119242593646049 ]
  - [   0.0041411835700274,  0.0069129094481468,  0.0119830444455147 ]
  - [   0.0041853748261929,  0.0068963374942541,  0.0119899958372116 ]
  - [   0.0041428976692259,  0.0068873427808285,  0.0120033547282219 ]
  - [   0.0041640792042017,  0.0068213762715459,  0.0119144693017006 ]
  - [   0.0041714087128639,  0.0069653717800975,  0.0120693147182465 ]
  - [   0.0041287960484624,  0.0068929549306631,  0.0119943916797638 ]
  - [   0.0130214337259531,  0.0117760831490159, -0.2188628762960434 ]
  - [   0.0056726634502411,  0.0064346035942435, -0.2159771025180817 ]
  - [   0.0128661990165710,  0.0012143515050411, -0.2131799757480621 ]
  - [   0.0055470606312156,  0.0065061626955867, -0.2158556580543518 ]
  - [   0.0055460017174482,  0.0063614360988140, -0.2161017954349518 ]
  - [   0.0061129285022616,  0.0064369095489383, -0.2159764617681503 ]
  - [   0.0038071703165770,  0.0064434786327183, -0.2159756720066071 ]
  - [   0.0052104033529758,  0.0069607025943696, -0.2157230377197266 ]
  - [   0.0052061695605516,  0.0059142573736608, -0.2162386029958725 ]
  - [   0.0056749805808067,  0.0064288936555386, -0.2160006761550903 ]
  - [   0.0056582321412861,  0.0064374743960798, -0.2159457057714462 ]
  - [   0.0056823226623237,  0.0064378464594483, -0.2159844189882278 ]
  - [   0.0056750532239676,  0.0064358352683485, -0.2159731537103653 ]
  - [   0.0056748585775495,  0.0064435815438628, -0.2159682065248489 ]
  - [   0.0056718708947301,  0.0064223064109683, -0.2159905731678009 ]
  - [   0.0056787314824760,  0.0064331786707044, -0.2159968167543411 ]
  - [   0.0056581394746900,  0.0064440490677953, -0.2159736901521683 ]
  - [   0.0056832339614630,  0.0064321695826948, -0.2159611284732819 ]
  - [  -0.0016280419658870, -0.0024070951621979, -0.0225342735648155 ]
  - [  -0.0016356180422008, -0.0056263511069119, -0.0253715552389622 ]
  - [  -0.0051774578168988, -0.0040216115303338, -0.0239604376256466 ]
  - [  -0.0044092806056142, -0.0040340670384467, -0.0239496752619743 ]
  - [  -0.0077774743549526, -0.0058436701074243, -0.0226966105401516 ]
  - [  -0.0077577857300639, -0.0021935694385320, -0.0252224169671535 ]
  - [  -0.0048569482751191, -0.0042030317708850, -0.0239558629691601 ]
  - [  -0.0046121394261718, -0.0040245377458632, -0.0239612795412540 ]
  - [  -0.0048570912331343, -0.0038388406392187, -0.0239661764353514 ]
  - [  -0.0047286953777075, -0.0040189209394157, -0.0239548012614250 ]
  - [  -0.0047953827306628, -0.0040009971708059, -0.0237656943500042 ]
  - [  -0.0047944001853466, -0.0040369182825089, -0.0241557657718658 ]
  - [  -0.0047711855731905, -0.0040421872399747, -0.0237507279962301 ]
  - [  -0.0047773187980056, -0.0040174871683121, -0.0239611230790615 ]
  - [  -0.0047717401757836, -0.0039945030584931, -0.0241637341678143 ]
  - [  -0.0047788037918508, -0.0040179146453738, -0.0239471141248941 ]
  - [  -0.0047796601429582, -0.0040222560055554, -0.0239696167409420 ]
  - [  -0.0047684963792562, -0.0040215728804469, -0.0239608716219664 ]
  - [  -0.0083733880892396, -0.0144402189180255,  0.2147168517112732 ]
  - [  -0.0083712376654148, -0.0137120876461267,  0.2146794795989990 ]
  - [  -0.0081778522580862, -0.0140772117301822,  0.2147008478641510 ]
  - [  -0.0077528692781925, -0.0140816066414118,  0.2147027850151062 ]
  - [  -0.0082095358520746, -0.0141288852319121,  0.2144986689090729 ]
  - [  -0.0082151349633932, -0.0140345161780715,  0.2149000912904739 ]
  - [  -0.0080888634547591, -0.0141284596174955,  0.2146825492382050 ]
  - [  -0.0081321261823177, -0.0140788080170751,  0.2146999537944794 ]
  - [  -0.0080849900841713, -0.0140263717621565,  0.2147173136472702 ]
  - [  -0.0088351853191853, -0.0140709718689322,  0.2147117108106613 ]
  - [  -0.0089925415813923, -0.0135991601273417,  0.2140954881906509 ]
  - [  -0.0089852977544069, -0.0145565699785948,  0.2152955234050751 ]
  - [  -0.0082272645086050, -0.0149919353425503,  0.2140739858150482 ]
  - [  -0.0081705749034882, -0.0140812266618013,  0.2146970331668854 ]
  - [  -0.0082259718328714, -0.0131694171577692,  0.2153192162513733 ]
  - [  -0.0082397367805243, -0.0140362847596407,  0.2146703302860260 ]
  - [  -0.0082349590957165, -0.0141177400946617,  0.2147237062454224 ]
  - [  -0.0081474725157022, -0.0140790129080415,  0.2146977186203003 ]
- atom:    1
  displacement:
    [  -0.0100000000000000,  0.0000000000000000,  0.0000000000000000 ]
  forces:
  - [   0.0191475469619036,  0.0033291899599135,  0.0672125071287155 ]
  - [   0.0007058474002406,  0.0037473265547305,  0.0671467408537865 ]
  - [   0.0006518280133605,  0.0032684584148228,  0.0669288933277130 ]
  - [   0.0015058587305248,  0.0027917106635869,  0.0673298686742783 ]
  - [   0.0018543176120147,  0.0035141967236996,  0.0670365691184998 ]
  - [   0.0014927880838513,  0.0042419405654073,  0.0667324811220169 ]
  - [   0.0015027669724077,  0.0032700020819902,  0.0672181323170662 ]
  - [   0.0014942629495636,  0.0037618745118380,  0.0668540447950363 ]
  - [   0.0018565888749436,  0.0035134106874466,  0.0670350715517998 ]
  - [   0.0018847746541724,  0.0034919911995530,  0.0669189020991325 ]
  - [   0.0019139888463542,  0.0035229437053204,  0.0671538487076759 ]
  - [   0.0019148928113282,  0.0035226384643465,  0.0670255348086357 ]
  - [   0.0019226005533710,  0.0035173469223082,  0.0670400187373161 ]
  - [   0.0019103185040876,  0.0035173189826310,  0.0669918730854988 ]
  - [   0.0018793850904331,  0.0035033929161727,  0.0670722573995590 ]
  - [   0.0019242286216468,  0.0035183017607778,  0.0670419409871101 ]
  - [   0.0018801710102707,  0.0035036287736148,  0.0670382604002953 ]
  - [   0.0019102718215436,  0.0035179127007723,  0.0670245811343193 ]
  - [   0.0007966775447130,  0.0009017316624522, -0.0530440136790276 ]
  - [   0.0011042994447052,  0.0012521436437964, -0.0537916123867035 ]
  - [   0.0007945690304041,  0.0016123838722706, -0.0545750334858894 ]
  - [   0.0011347904801369,  0.0012376205995679, -0.0537946149706841 ]
  - [   0.0011336961761117,  0.0012717638164759, -0.0537871345877647 ]
  - [   0.0010760612785816,  0.0012544710189104, -0.0537897124886513 ]
  - [   0.0014135282253847,  0.0012605460360646, -0.0537761151790619 ]
  - [   0.0008145867614076,  0.0014024153351784, -0.0534877032041550 ]
  - [   0.0008414390613325,  0.0011235307902098, -0.0540649369359016 ]
  - [   0.0009963456541300,  0.0011866423301399, -0.0539432093501091 ]
  - [   0.0010006185621023,  0.0013176640495658, -0.0536421313881874 ]
  - [   0.0013853218406439,  0.0012521464377642, -0.0537940189242363 ]
  - [   0.0011120825074613,  0.0012544943019748, -0.0537926778197289 ]
  - [   0.0011416440829635,  0.0012457296252251, -0.0537702292203903 ]
  - [   0.0011449349112809,  0.0012641670182347, -0.0538089647889137 ]
  - [   0.0008387059206143,  0.0015708710998297, -0.0539552345871925 ]
  - [   0.0011599757708609,  0.0012516882270575, -0.0537889450788498 ]
  - [   0.0008371563162655,  0.0009350134059787, -0.0536303892731667 ]
  - [   0.0032185786403716,  0.0067577650770545,  0.0110864117741585 ]
  - [   0.0040014414116740,  0.0068988837301731,  0.0119940862059593 ]
  - [   0.0031399680301547,  0.0070765260607004,  0.0129849836230278 ]
  - [   0.0040344847366214,  0.0068799052387476,  0.0120651572942734 ]
  - [   0.0040346207097173,  0.0069167809560895,  0.0119231492280960 ]
  - [   0.0043864855542779,  0.0068976115435362,  0.0119936764240265 ]
  - [   0.0034465976059437,  0.0069041550159454,  0.0119819343090057 ]
  - [   0.0042446218430996,  0.0069756899029016,  0.0121834576129913 ]
  - [   0.0042542591691017,  0.0068118572235107,  0.0118064507842064 ]
  - [   0.0040553705766797,  0.0068975631147623,  0.0119858309626579 ]
  - [   0.0042005083523691,  0.0069620050489902,  0.0119309797883034 ]
  - [   0.0042122630402446,  0.0068336110562086,  0.0120615810155869 ]
  - [   0.0041673397645354,  0.0068851374089718,  0.0120001062750816 ]
  - [   0.0041311997920275,  0.0069018052890897,  0.0119941383600235 ]
  - [   0.0041715530678630,  0.0069109387695789,  0.0119812712073326 ]
  - [   0.0041452124714851,  0.0069657601416111,  0.0120706707239151 ]
  - [   0.0041410438716412,  0.0068236226215959,  0.0119137838482857 ]
  - [   0.0041786702349782,  0.0068906042724848,  0.0119947046041489 ]
  - [  -0.0014933331403881,  0.0012431517243385, -0.2131680697202682 ]
  - [   0.0056654363870621,  0.0064336899667978, -0.2159780263900757 ]