phonopy:
  version: "2.37.1"
  frequency_unit_conversion_factor: 15.633302
  symmetry_tolerance: 1.00000e-05

space_group:
  type: "P1"
  number: 1
  Hall_symbol: "P 1"

primitive_matrix:
- [  1.000000000000000,  1.000000000000000,  0.000000000000000 ]
- [  0.000000000000000,  0.000000000000000,  1.000000000000000 ]
- [  0.000000000000000, -1.000000000000000,  0.000000000000000 ]

supercell_matrix:
- [   3,   0,   0 ]
- [   0,   2,   0 ]
- [   0,   0,   2 ]

primitive_cell:
  lattice:
  - [     4.936648807899948,     0.000000000000000,     0.000000000000000 ] # a
  - [     2.468315099923955,    -0.000005177950427,    -5.277295029376012 ] # b
  - [     2.468323022606624,     7.387051687305774,     0.000000000000000 ] # c
  points:
  - symbol: Li # 1
    coordinates: [  0.424615613554978,  0.171768205472810,  0.229898755307824 ]
    mass: 6.940000
  - symbol: Li # 2
    coordinates: [  0.091226736237654,  0.505176474015618,  0.563255637741523 ]
    mass: 6.940000
  - symbol: Li # 3
    coordinates: [  0.758128978443955,  0.504935228239700,  0.229729016699937 ]
    mass: 6.940000
  - symbol: Li # 4
    coordinates: [  0.424639452289923,  0.505079512828404,  0.896381268664493 ]
    mass: 6.940000
  - symbol: Li # 5
    coordinates: [  0.757998789420975,  0.171656559106345,  0.563093913439047 ]
    mass: 6.940000
  - symbol: Li # 6
    coordinates: [  0.424627588747869,  0.838467631567759,  0.563124210499479 ]
    mass: 6.940000
  - symbol: Li # 7
    coordinates: [  0.758012230895430,  0.838453834835593,  0.896443481451416 ]
    mass: 6.940000
  - symbol: Li # 8
    coordinates: [  0.091252832979632,  0.838379295084259,  0.229769480914879 ]
    mass: 6.940000
  - symbol: Li # 9
    coordinates: [  0.091401142492437,  0.171648758009356,  0.896380457996056 ]
    mass: 6.940000
  reciprocal_lattice: # without 2pi
  - [     0.202566566695961,    -0.067685964759830,     0.094745217579598 ] # a*
  - [     0.000000000000000,     0.000000000000000,    -0.189491016597236 ] # b*
  - [     0.000000000000000,     0.135372005277619,    -0.000000132823639 ] # c*

unit_cell:
  lattice:
  - [     4.936648807899949,     0.000000000000000,     0.000000000000000 ] # a
  - [     2.468323022606624,     7.387051687305774,     0.000000000000000 ] # b
  - [     2.468333707975992,     0.000005177950427,     5.277295029376013 ] # c
  points:
  - symbol: Li # 1
    coordinates: [  0.596383819027788,  0.229898755307824,  0.828231794527190 ]
    mass: 6.940000
    reduced_to: 1
  - symbol: Li # 2
    coordinates: [  0.596403210253272,  0.563255637741523,  0.494823525984382 ]
    mass: 6.940000
    reduced_to: 2
  - symbol: Li # 3
    coordinates: [  0.263064206683655,  0.229729016699937,  0.495064771760300 ]
    mass: 6.940000
    reduced_to: 3
  - symbol: Li # 4
    coordinates: [  0.929718965118327,  0.896381268664493,  0.494920487171595 ]
    mass: 6.940000
    reduced_to: 4
  - symbol: Li # 5
    coordinates: [  0.929655348527321,  0.563093913439047,  0.828343440893654 ]
    mass: 6.940000
    reduced_to: 5
  - symbol: Li # 6
    coordinates: [  0.263095220315628,  0.563124210499479,  0.161532368432241 ]
    mass: 6.940000
    reduced_to: 6
  - symbol: Li # 7
    coordinates: [  0.596466065731023,  0.896443481451416,  0.161546165164407 ]
    mass: 6.940000
    reduced_to: 7
  - symbol: Li # 8
    coordinates: [  0.929632128063892,  0.229769480914879,  0.161620704915741 ]
    mass: 6.940000
    reduced_to: 8
  - symbol: Li # 9
    coordinates: [  0.263049900501794,  0.896380457996056,  0.828351241990643 ]
    mass: 6.940000
    reduced_to: 9

supercell:
  lattice:
  - [    14.809946423699845,     0.000000000000000,     0.000000000000000 ] # a
  - [     4.936646045213248,    14.774103374611547,     0.000000000000000 ] # b
  - [     4.936667415951984,     0.000010355900853,    10.554590058752026 ] # c
  points:
  - symbol: Li # 1
    coordinates: [  0.198794606342596,  0.114949377653912,  0.414115897263595 ]
    mass: 6.940000
    reduced_to: 1
  - symbol: Li # 2
    coordinates: [  0.532127939675929,  0.114949377653912,  0.414115897263595 ]
    mass: 6.940000
    reduced_to: 1
  - symbol: Li # 3
    coordinates: [  0.865461273009263,  0.114949377653912,  0.414115897263595 ]
    mass: 6.940000
    reduced_to: 1
  - symbol: Li # 4
    coordinates: [  0.198794606342596,  0.614949377653912,  0.414115897263595 ]
    mass: 6.940000
    reduced_to: 1
  - symbol: Li # 5
    coordinates: [  0.532127939675929,  0.614949377653912,  0.414115897263595 ]
    mass: 6.940000
    reduced_to: 1
  - symbol: Li # 6
    coordinates: [  0.865461273009263,  0.614949377653912,  0.414115897263595 ]
    mass: 6.940000
    reduced_to: 1
  - symbol: Li # 7
    coordinates: [  0.198794606342596,  0.114949377653912,  0.914115897263595 ]
    mass: 6.940000
    reduced_to: 1
  - symbol: Li # 8
    coordinates: [  0.532127939675929,  0.114949377653912,  0.914115897263595 ]
    mass: 6.940000
    reduced_to: 1
  - symbol: Li # 9
    coordinates: [  0.865461273009263,  0.114949377653912,  0.914115897263595 ]
    mass: 6.940000
    reduced_to: 1
  - symbol: Li # 10
    coordinates: [  0.198794606342596,  0.614949377653912,  0.914115897263595 ]
    mass: 6.940000
    reduced_to: 1
  - symbol: Li # 11
    coordinates: [  0.532127939675929,  0.614949377653912,  0.914115897263595 ]
    mass: 6.940000
    reduced_to: 1
  - symbol: Li # 12
    coordinates: [  0.865461273009263,  0.614949377653912,  0.914115897263595 ]
    mass: 6.940000
    reduced_to: 1
  - symbol: Li # 13
    coordinates: [  0.198801070084424,  0.281627818870762,  0.247411762992191 ]
    mass: 6.940000
    reduced_to: 13
  - symbol: Li # 14
    coordinates: [  0.532134403417757,  0.281627818870762,  0.247411762992191 ]
    mass: 6.940000
    reduced_to: 13
  - symbol: Li # 15
    coordinates: [  0.865467736751091,  0.281627818870762,  0.247411762992191 ]
    mass: 6.940000
    reduced_to: 13
  - symbol: Li # 16
    coordinates: [  0.198801070084424,  0.781627818870762,  0.247411762992191 ]
    mass: 6.940000
    reduced_to: 13
  - symbol: Li # 17
    coordinates: [  0.532134403417757,  0.781627818870762,  0.247411762992191 ]
    mass: 6.940000
    reduced_to: 13
  - symbol: Li # 18
    coordinates: [  0.865467736751091,  0.781627818870762,  0.247411762992191 ]
    mass: 6.940000
    reduced_to: 13
  - symbol: Li # 19
    coordinates: [  0.198801070084424,  0.281627818870762,  0.747411762992191 ]
    mass: 6.940000
    reduced_to: 13
  - symbol: Li # 20
    coordinates: [  0.532134403417757,  0.281627818870762,  0.747411762992191 ]
    mass: 6.940000
    reduced_to: 13
  - symbol: Li # 21
    coordinates: [  0.865467736751091,  0.281627818870762,  0.747411762992191 ]
    mass: 6.940000
    reduced_to: 13
  - symbol: Li # 22
    coordinates: [  0.198801070084424,  0.781627818870762,  0.747411762992191 ]
    mass: 6.940000
    reduced_to: 13
  - symbol: Li # 23
    coordinates: [  0.532134403417757,  0.781627818870762,  0.747411762992191 ]
    mass: 6.940000
    reduced_to: 13
  - symbol: Li # 24
    coordinates: [  0.865467736751091,  0.781627818870762,  0.747411762992191 ]
    mass: 6.940000
    reduced_to: 13
  - symbol: Li # 25
    coordinates: [  0.087688068894552,  0.114864508349968,  0.247532385880150 ]
    mass: 6.940000
    reduced_to: 25
  - symbol: Li # 26
    coordinates: [  0.421021402227885,  0.114864508349968,  0.247532385880150 ]
    mass: 6.940000
    reduced_to: 25
  - symbol: Li # 27
    coordinates: [  0.754354735561218,  0.114864508349968,  0.247532385880150 ]
    mass: 6.940000
    reduced_to: 25
  - symbol: Li # 28
    coordinates: [  0.087688068894552,  0.614864508349968,  0.247532385880150 ]
    mass: 6.940000
    reduced_to: 25
  - symbol: Li # 29
    coordinates: [  0.421021402227885,  0.614864508349968,  0.247532385880150 ]
    mass: 6.940000
    reduced_to: 25
  - symbol: Li # 30
    coordinates: [  0.754354735561218,  0.614864508349968,  0.247532385880150 ]
    mass: 6.940000
    reduced_to: 25
  - symbol: Li # 31
    coordinates: [  0.087688068894552,  0.114864508349968,  0.747532385880150 ]
    mass: 6.940000
    reduced_to: 25
  - symbol: Li # 32
    coordinates: [  0.421021402227885,  0.114864508349968,  0.747532385880150 ]
    mass: 6.940000
    reduced_to: 25
  - symbol: Li # 33
    coordinates: [  0.754354735561218,  0.114864508349968,  0.747532385880150 ]
    mass: 6.940000
    reduced_to: 25
  - symbol: Li # 34
    coordinates: [  0.087688068894552,  0.614864508349968,  0.747532385880150 ]
    mass: 6.940000
    reduced_to: 25
  - symbol: Li # 35
    coordinates: [  0.421021402227885,  0.614864508349968,  0.747532385880150 ]
    mass: 6.940000
    reduced_to: 25
  - symbol: Li # 36
    coordinates: [  0.754354735561218,  0.614864508349968,  0.747532385880150 ]
    mass: 6.940000
    reduced_to: 25
  - symbol: Li # 37
    coordinates: [  0.309906321706109,  0.448190634332247,  0.247460243585798 ]
    mass: 6.940000
    reduced_to: 37
  - symbol: Li # 38
    coordinates: [  0.643239655039442,  0.448190634332247,  0.247460243585798 ]
    mass: 6.940000
    reduced_to: 37
  - symbol: Li # 39
    coordinates: [  0.976572988372776,  0.448190634332247,  0.247460243585798 ]
    mass: 6.940000
    reduced_to: 37
  - symbol: Li # 40
    coordinates: [  0.309906321706109,  0.948190634332247,  0.247460243585798 ]
    mass: 6.940000
    reduced_to: 37
  - symbol: Li # 41
    coordinates: [  0.643239655039442,  0.948190634332247,  0.247460243585798 ]
    mass: 6.940000
    reduced_to: 37
  - symbol: Li # 42
    coordinates: [  0.976572988372776,  0.948190634332247,  0.247460243585798 ]
    mass: 6.940000
    reduced_to: 37
  - symbol: Li # 43
    coordinates: [  0.309906321706109,  0.448190634332247,  0.747460243585798 ]
    mass: 6.940000
    reduced_to: 37
  - symbol: Li # 44
    coordinates: [  0.643239655039442,  0.448190634332247,  0.747460243585798 ]
    mass: 6.940000
    reduced_to: 37
  - symbol: Li # 45
    coordinates: [  0.976572988372776,  0.448190634332247,  0.747460243585798 ]
    mass: 6.940000
    reduced_to: 37
  - symbol: Li # 46
    coordinates: [  0.309906321706109,  0.948190634332247,  0.747460243585798 ]
    mass: 6.940000
    reduced_to: 37
  - symbol: Li # 47
    coordinates: [  0.643239655039442,  0.948190634332247,  0.747460243585798 ]
    mass: 6.940000
    reduced_to: 37
  - symbol: Li # 48
    coordinates: [  0.976572988372776,  0.948190634332247,  0.747460243585798 ]
    mass: 6.940000
    reduced_to: 37
  - symbol: Li # 49
    coordinates: [  0.309885116175774,  0.281546956719524,  0.414171720446827 ]
    mass: 6.940000
    reduced_to: 49
  - symbol: Li # 50
    coordinates: [  0.643218449509107,  0.281546956719524,  0.414171720446827 ]
    mass: 6.940000
    reduced_to: 49
  - symbol: Li # 51
    coordinates: [  0.976551782842440,  0.281546956719524,  0.414171720446827 ]
    mass: 6.940000
    reduced_to: 49
  - symbol: Li # 52
    coordinates: [  0.309885116175774,  0.781546956719524,  0.414171720446827 ]
    mass: 6.940000
    reduced_to: 49
  - symbol: Li # 53
    coordinates: [  0.643218449509107,  0.781546956719524,  0.414171720446827 ]
    mass: 6.940000
    reduced_to: 49
  - symbol: Li # 54
    coordinates: [  0.976551782842440,  0.781546956719524,  0.414171720446827 ]
    mass: 6.940000
    reduced_to: 49
  - symbol: Li # 55
    coordinates: [  0.309885116175774,  0.281546956719524,  0.914171720446827 ]
    mass: 6.940000
    reduced_to: 49
  - symbol: Li # 56
    coordinates: [  0.643218449509107,  0.281546956719524,  0.914171720446827 ]
    mass: 6.940000
    reduced_to: 49
  - symbol: Li # 57
    coordinates: [  0.976551782842440,  0.281546956719524,  0.914171720446827 ]
    mass: 6.940000
    reduced_to: 49
  - symbol: Li # 58
    coordinates: [  0.309885116175774,  0.781546956719524,  0.914171720446827 ]
    mass: 6.940000
    reduced_to: 49
  - symbol: Li # 59
    coordinates: [  0.643218449509107,  0.781546956719524,  0.914171720446827 ]
    mass: 6.940000
    reduced_to: 49
  - symbol: Li # 60
    coordinates: [  0.976551782842440,  0.781546956719524,  0.914171720446827 ]
    mass: 6.940000
    reduced_to: 49
  - symbol: Li # 61
    coordinates: [  0.087698406771876,  0.281562105249740,  0.080766184216120 ]
    mass: 6.940000
    reduced_to: 61
  - symbol: Li # 62
    coordinates: [  0.421031740105209,  0.281562105249740,  0.080766184216120 ]
    mass: 6.940000
    reduced_to: 61
  - symbol: Li # 63
    coordinates: [  0.754365073438543,  0.281562105249740,  0.080766184216120 ]
    mass: 6.940000
    reduced_to: 61
  - symbol: Li # 64
    coordinates: [  0.087698406771876,  0.781562105249740,  0.080766184216120 ]
    mass: 6.940000
    reduced_to: 61
  - symbol: Li # 65
    coordinates: [  0.421031740105209,  0.781562105249740,  0.080766184216120 ]
    mass: 6.940000
    reduced_to: 61
  - symbol: Li # 66
    coordinates: [  0.754365073438543,  0.781562105249740,  0.080766184216120 ]
    mass: 6.940000
    reduced_to: 61
  - symbol: Li # 67
    coordinates: [  0.087698406771876,  0.281562105249740,  0.580766184216120 ]
    mass: 6.940000
    reduced_to: 61
  - symbol: Li # 68
    coordinates: [  0.421031740105209,  0.281562105249740,  0.580766184216120 ]
    mass: 6.940000
    reduced_to: 61
  - symbol: Li # 69
    coordinates: [  0.754365073438543,  0.281562105249740,  0.580766184216120 ]
    mass: 6.940000
    reduced_to: 61
  - symbol: Li # 70
    coordinates: [  0.087698406771876,  0.781562105249740,  0.580766184216120 ]
    mass: 6.940000
    reduced_to: 61
  - symbol: Li # 71
    coordinates: [  0.421031740105209,  0.781562105249740,  0.580766184216120 ]
    mass: 6.940000
    reduced_to: 61
  - symbol: Li # 72
    coordinates: [  0.754365073438543,  0.781562105249740,  0.580766184216120 ]
    mass: 6.940000
    reduced_to: 61
  - symbol: Li # 73
    coordinates: [  0.198822021910341,  0.448221740725708,  0.080773082582203 ]
    mass: 6.940000
    reduced_to: 73
  - symbol: Li # 74
    coordinates: [  0.532155355243674,  0.448221740725708,  0.080773082582203 ]
    mass: 6.940000
    reduced_to: 73
  - symbol: Li # 75
    coordinates: [  0.865488688577008,  0.448221740725708,  0.080773082582203 ]
    mass: 6.940000
    reduced_to: 73
  - symbol: Li # 76
    coordinates: [  0.198822021910341,  0.948221740725708,  0.080773082582203 ]
    mass: 6.940000
    reduced_to: 73
  - symbol: Li # 77
    coordinates: [  0.532155355243674,  0.948221740725708,  0.080773082582203 ]
    mass: 6.940000
    reduced_to: 73
  - symbol: Li # 78
    coordinates: [  0.865488688577008,  0.948221740725708,  0.080773082582203 ]
    mass: 6.940000
    reduced_to: 73
  - symbol: Li # 79
    coordinates: [  0.198822021910341,  0.448221740725708,  0.580773082582203 ]
    mass: 6.940000
    reduced_to: 73
  - symbol: Li # 80
    coordinates: [  0.532155355243674,  0.448221740725708,  0.580773082582203 ]
    mass: 6.940000
    reduced_to: 73
  - symbol: Li # 81
    coordinates: [  0.865488688577008,  0.448221740725708,  0.580773082582203 ]
    mass: 6.940000
    reduced_to: 73
  - symbol: Li # 82
    coordinates: [  0.198822021910341,  0.948221740725708,  0.580773082582203 ]
    mass: 6.940000
    reduced_to: 73
  - symbol: Li # 83
    coordinates: [  0.532155355243674,  0.948221740725708,  0.580773082582203 ]
    mass: 6.940000
    reduced_to: 73
  - symbol: Li # 84
    coordinates: [  0.865488688577008,  0.948221740725708,  0.580773082582203 ]
    mass: 6.940000
    reduced_to: 73
  - symbol: Li # 85
    coordinates: [  0.309877376021297,  0.114884740457439,  0.080810352457870 ]
    mass: 6.940000
    reduced_to: 85
  - symbol: Li # 86
    coordinates: [  0.643210709354631,  0.114884740457439,  0.080810352457870 ]
    mass: 6.940000
    reduced_to: 85
  - symbol: Li # 87
    coordinates: [  0.976544042687964,  0.114884740457439,  0.080810352457870 ]
    mass: 6.940000
    reduced_to: 85
  - symbol: Li # 88
    coordinates: [  0.309877376021297,  0.614884740457439,  0.080810352457870 ]
    mass: 6.940000
    reduced_to: 85
  - symbol: Li # 89
    coordinates: [  0.643210709354631,  0.614884740457439,  0.080810352457870 ]
    mass: 6.940000
    reduced_to: 85
  - symbol: Li # 90
    coordinates: [  0.976544042687964,  0.614884740457439,  0.080810352457870 ]
    mass: 6.940000
    reduced_to: 85
  - symbol: Li # 91
    coordinates: [  0.309877376021297,  0.114884740457439,  0.580810352457870 ]
    mass: 6.940000
    reduced_to: 85
  - symbol: Li # 92
    coordinates: [  0.643210709354631,  0.114884740457439,  0.580810352457870 ]
    mass: 6.940000
    reduced_to: 85
  - symbol: Li # 93
    coordinates: [  0.976544042687964,  0.114884740457439,  0.580810352457870 ]
    mass: 6.940000
    reduced_to: 85
  - symbol: Li # 94
    coordinates: [  0.309877376021297,  0.614884740457439,  0.580810352457870 ]
    mass: 6.940000
    reduced_to: 85
  - symbol: Li # 95
    coordinates: [  0.643210709354631,  0.614884740457439,  0.580810352457870 ]
    mass: 6.940000
    reduced_to: 85
  - symbol: Li # 96
    coordinates: [  0.976544042687964,  0.614884740457439,  0.580810352457870 ]
    mass: 6.940000
    reduced_to: 85
  - symbol: Li # 97
    coordinates: [  0.087683300167265,  0.448190228998028,  0.414175620995322 ]
    mass: 6.940000
    reduced_to: 97
  - symbol: Li # 98
    coordinates: [  0.421016633500598,  0.448190228998028,  0.414175620995322 ]
    mass: 6.940000
    reduced_to: 97
  - symbol: Li # 99
    coordinates: [  0.754349966833931,  0.448190228998028,  0.414175620995322 ]
    mass: 6.940000
    reduced_to: 97
  - symbol: Li # 100
    coordinates: [  0.087683300167265,  0.948190228998028,  0.414175620995322 ]
    mass: 6.940000
    reduced_to: 97
  - symbol: Li # 101
    coordinates: [  0.421016633500598,  0.948190228998028,  0.414175620995322 ]
    mass: 6.940000
    reduced_to: 97
  - symbol: Li # 102
    coordinates: [  0.754349966833931,  0.948190228998028,  0.414175620995322 ]
    mass: 6.940000
    reduced_to: 97
  - symbol: Li # 103
    coordinates: [  0.087683300167265,  0.448190228998028,  0.914175620995322 ]
    mass: 6.940000
    reduced_to: 97
  - symbol: Li # 104
    coordinates: [  0.421016633500598,  0.448190228998028,  0.914175620995322 ]
    mass: 6.940000
    reduced_to: 97
  - symbol: Li # 105
    coordinates: [  0.754349966833931,  0.448190228998028,  0.914175620995322 ]
    mass: 6.940000
    reduced_to: 97
  - symbol: Li # 106
    coordinates: [  0.087683300167265,  0.948190228998028,  0.914175620995322 ]
    mass: 6.940000
    reduced_to: 97
  - symbol: Li # 107
    coordinates: [  0.421016633500598,  0.948190228998028,  0.914175620995322 ]
    mass: 6.940000
    reduced_to: 97
  - symbol: Li # 108
    coordinates: [  0.754349966833931,  0.948190228998028,  0.914175620995322 ]
    mass: 6.940000
    reduced_to: 97

displacements:
- atom:    1
  displacement:
    [   0.0100000000000000,  0.0000000000000000,  0.0000000000000000 ]
  forces:
  - [  -0.0108340755105019, -0.0007127979770303,  0.0000706377031747 ]
  - [  -0.0007719389395788, -0.0007113509345800,  0.0000774594154791 ]
  - [  -0.0007153579499573, -0.0007113182800822,  0.0000774063955760 ]
  - [  -0.0003261995152570, -0.0007126650889404,  0.0000766767916502 ]
  - [  -0.0003270319139119, -0.0007119987276383,  0.0000764306532801 ]
  - [  -0.0003275742055848, -0.0007120970403776,  0.0000767972669564 ]
  - [  -0.0003180830390193, -0.0007116268971004,  0.0000670549052302 ]
  - [  -0.0003237286582589, -0.0007114934269339,  0.0000809261837276 ]
  - [  -0.0003233635798097, -0.0007111098384485,  0.0000804391747806 ]
  - [  -0.0003269800217822, -0.0007111760787666,  0.0000759570320952 ]
  - [  -0.0003270896850154, -0.0007116228807718,  0.0000759348768042 ]
  - [  -0.0003276385832578, -0.0007114126347005,  0.0000755835062591 ]
  - [  -0.0004640695406124, -0.0008860368398018,  0.0003568154643290 ]
  - [  -0.0002359735372011, -0.0008776214672253,  0.0003534942516126 ]
  - [  -0.0002362399245612, -0.0008836115011945,  0.0003523046907503 ]
  - [  -0.0002281305060023, -0.0008774647722021,  0.0003479855658952 ]
  - [  -0.0002285985392518, -0.0008830961305648,  0.0003590444393922 ]
  - [  -0.0002384030667599, -0.0008805828401819,  0.0003529055684339 ]
  - [  -0.0003060284652747, -0.0009908772772178,  0.0002436597715132 ]
  - [  -0.0002329289272893, -0.0008803340606391,  0.0003539075260051 ]
  - [  -0.0003001829027198, -0.0007760901353322,  0.0004519896174315 ]
  - [  -0.0002381705999142, -0.0008808649145067,  0.0003536129079293 ]
  - [  -0.0002369626890868, -0.0008804093813524,  0.0003531993133947 ]
  - [  -0.0002363795647398, -0.0008803665987216,  0.0003538963792380 ]
  - [   0.0020968280732632,  0.0002829377481248,  0.0012124818749726 ]
  - [   0.0021369867026806,  0.0002795975306071, -0.0026891313027591 ]
  - [  -0.0004050279676449,  0.0002808020217344, -0.0007152731413953 ]
  - [  -0.0004057716578245,  0.0002809767029248, -0.0007152885664254 ]
  - [  -0.0004056014004163,  0.0002811943995766, -0.0007148222066462 ]
  - [  -0.0004056848119944,  0.0002815992338583, -0.0007147054420784 ]
  - [  -0.0002862944966182,  0.0002816519117914, -0.0007149239536375 ]
  - [  -0.0004090923466720,  0.0002814785693772, -0.0007140960660763 ]
  - [  -0.0004091504961252,  0.0002814795298036, -0.0007147791911848 ]
  - [  -0.0004054591699969,  0.0002822894020937, -0.0007142942631617 ]
  - [  -0.0004057727055624,  0.0002805885742418, -0.0007137813954614 ]
  - [  -0.0004052704607602,  0.0002807819982991, -0.0007143088150769 ]
  - [   0.0004371629329398,  0.0005283232312649,  0.0003886552876793 ]
  - [   0.0004282713634893,  0.0005259488243610,  0.0003824117884506 ]
  - [   0.0004378755984362,  0.0005230003735051,  0.0003776186495088 ]
  - [   0.0002025719732046,  0.0005316372262314,  0.0003867993073072 ]
  - [   0.0004304797330406,  0.0005230015376583,  0.0003832900838461 ]
  - [   0.0004299616266508,  0.0005275529692881,  0.0003832975053228 ]
  - [   0.0004284153110348,  0.0005251256516203,  0.0003829558263533 ]
  - [   0.0004285904578865,  0.0005257606389932,  0.0003834472154267 ]
  - [   0.0004272405058146,  0.0005255178548396,  0.0003828012268059 ]
  - [   0.0003604300436564,  0.0006346594891511,  0.0002759856288321 ]
  - [   0.0004329316434450,  0.0005248549277894,  0.0003839740529656 ]
  - [   0.0003667183336802,  0.0004233616054989,  0.0004788010264747 ]
  - [   0.0009696022025310,  0.0005047048325650, -0.0006718572694808 ]
  - [   0.0003487961657811, -0.0000073017145041, -0.0006723497644998 ]
  - [   0.0009653969900683, -0.0005099954432808, -0.0006725615821779 ]
  - [   0.0003218470956199, -0.0000079323363025, -0.0006722874823026 ]
  - [   0.0003476505517028, -0.0000074667623267, -0.0006720212404616 ]
  - [   0.0003478302969597, -0.0000071511458373, -0.0006719948723912 ]
  - [   0.0003473899269011, -0.0000073180417530, -0.0006713063921779 ]
  - [   0.0003510722308420, -0.0000085232895799, -0.0006726901629008 ]
  - [   0.0003472781390883, -0.0000077746226452, -0.0006700601661578 ]
  - [   0.0003481343155727, -0.0000080119061749, -0.0006721760728396 ]
  - [   0.0003492872347124, -0.0000086368527263, -0.0006710023153573 ]
  - [   0.0003478733124211, -0.0000079459132394, -0.0006717586657032 ]
  - [  -0.0001758567232173, -0.0004351977840997,  0.0005656280554831 ]
  - [  -0.0001834082650021, -0.0006492396350950,  0.0007734617101960 ]
  - [  -0.0001093675091397, -0.0005384233663790,  0.0006653586751781 ]
  - [  -0.0001123372421716, -0.0005386210978031,  0.0006637182086706 ]
  - [  -0.0001143399495049, -0.0005372390151024,  0.0006647240370512 ]
  - [  -0.0001117197534768, -0.0005374476313591,  0.0006648907437921 ]
  - [  -0.0003420289722271, -0.0005444635171443,  0.0006605415255763 ]
  - [  -0.0001129560696427, -0.0005360178183764,  0.0006634504534304 ]
  - [  -0.0001120875822380, -0.0005420441157185,  0.0006637995829806 ]
  - [  -0.0001042867952492, -0.0005358835333027,  0.0006695141782984 ]
  - [  -0.0001039089547703, -0.0005410280427895,  0.0006582238711417 ]
  - [  -0.0001139413798228, -0.0005388889112510,  0.0006637513288297 ]
  - [  -0.0004297014675103,  0.0008040845859796, -0.0000783474388300 ]
  - [  -0.0004280857974663,  0.0008027827716433, -0.0000781820854172 ]
  - [  -0.0004292507655919,  0.0008033171179704, -0.0000778924877523 ]
  - [  -0.0004909206181765,  0.0007005303632468, -0.0001754900440574 ]
  - [  -0.0004975534975529,  0.0009130693506449,  0.0000289995223284 ]
  - [  -0.0004251077771187,  0.0008042056579143, -0.0000775298103690 ]
  - [  -0.0004196753143333,  0.0008059209212661, -0.0000834822858451 ]
  - [  -0.0004288675845601,  0.0008035298087634, -0.0000779262190918 ]
  - [  -0.0004198732785881,  0.0008011107565835, -0.0000724314013496 ]
  - [  -0.0006547073135152,  0.0008089774055406, -0.0000822036963655 ]
  - [  -0.0004278610576876,  0.0007998271612450, -0.0000794404622866 ]
  - [  -0.0004270021454431,  0.0008050713222474, -0.0000785855081631 ]
  - [   0.0008548952173442, -0.0000473977997899,  0.0003170650452375 ]
  - [   0.0007338216528296, -0.0000475055785500,  0.0003114352002740 ]
  - [   0.0007310305954888, -0.0000474495391245,  0.0003133984282613 ]
  - [   0.0007358168950304, -0.0000461602976429,  0.0003136834129691 ]
  - [   0.0007358431466855, -0.0000475823107990,  0.0003137327730656 ]
  - [   0.0007364377379417, -0.0000476340355817,  0.0003141067572869 ]
  - [   0.0032771741971374, -0.0000480202070321,  0.0022866716608405 ]
  - [   0.0007366520003416, -0.0000467833888251,  0.0003143734065816 ]
  - [   0.0032298211008310, -0.0000456806883449, -0.0016087942058221 ]
  - [   0.0007352937827818, -0.0000469694932690,  0.0003135665319860 ]
  - [   0.0007361587486230, -0.0000463074684376,  0.0003135704901069 ]
  - [   0.0007353479741141, -0.0000469033548143,  0.0003140895860270 ]
  - [  -0.0000322589185089,  0.0005759652704000, -0.0003258248616476 ]
  - [  -0.0000066978391260,  0.0005748587427661, -0.0003244774416089 ]
  - [  -0.0000069264788181,  0.0005754528683610, -0.0003260202647652 ]
  - [   0.0006088588270359,  0.0010753485839814, -0.0003250632435083 ]
  - [   0.0006120273610577,  0.0000655613039271, -0.0003256844356656 ]
  - [  -0.0000067286309786,  0.0005753737641498, -0.0003261473029852 ]
  - [  -0.0000052173418226,  0.0005752260331064, -0.0003271482419223 ]
  - [  -0.0000047612411436,  0.0005750295240432, -0.0003264480619691 ]
  - [  -0.0000054152042139,  0.0005755994934589, -0.0003258625511080 ]
  - [  -0.0000070627429523,  0.0005750874988735, -0.0003258032375015 ]
  - [  -0.0000068428926170,  0.0005752717261203, -0.0003253108006902 ]
  - [  -0.0000047554494813,  0.0005748168332502, -0.0003268418950029 ]
- atom:    1
  displacement:
    [  -0.0100000000000000,  0.0000000000000000,  0.0000000000000000 ]
  forces:
  - [   0.0101811848580837, -0.0007108658319339,  0.0000822301954031 ]
  - [   0.0000618625781499, -0.0007113572792150,  0.0000775675071054 ]
  - [   0.0001184601569548, -0.0007113752071746,  0.0000772870043875 ]
  - [  -0.0003277771756984, -0.0007118783541955,  0.0000767449964769 ]
  - [  -0.0003262272803113, -0.0007124035037123,  0.0000763997668400 ]
  - [  -0.0003267583670095, -0.0007125105476007,  0.0000768692843849 ]
  - [  -0.0003352445201017, -0.0007116469787434,  0.0000853023811942 ]
  - [  -0.0003284449339844, -0.0007114501204342,  0.0000718712690286 ]
  - [  -0.0003279949887656, -0.0007111023878679,  0.0000714838679414 ]
  - [  -0.0003266328712925, -0.0007116229971871,  0.0000754214561312 ]
  - [  -0.0003272364847362, -0.0007113830652088,  0.0000761721021263 ]
  - [  -0.0003277558134869, -0.0007111600134522,  0.0000758640380809 ]
  - [  -0.0000082003680291, -0.0008860372472554,  0.0003565049846657 ]
  - [  -0.0002364886604482, -0.0008828006102704,  0.0003526868822519 ]
  - [  -0.0002361461083638, -0.0008781697251834,  0.0003534813877195 ]
  - [  -0.0002443918492645, -0.0008827517158352,  0.0003587966493797 ]
  - [  -0.0002447450824548, -0.0008778754854575,  0.0003479666193016 ]
  - [  -0.0002360223443247, -0.0008805231773295,  0.0003531535621732 ]
  - [  -0.0001708976051304, -0.0007760855369270,  0.0004522220697254 ]
  - [  -0.0002386723353993, -0.0008806944242679,  0.0003525067004375 ]
  - [  -0.0001649754121900, -0.0009904005564749,  0.0002449191233609 ]
  - [  -0.0002340965147596, -0.0008810491999611,  0.0003531279799063 ]
  - [  -0.0002351372677367, -0.0008808677084744,  0.0003540547622833 ]
  - [  -0.0002354982134420, -0.0008797956979834,  0.0003535015566740 ]
  - [  -0.0029504350386560,  0.0002799311769195, -0.0026893774047494 ]
  - [  -0.0029087560251355,  0.0002827670250554,  0.0012127243680879 ]
  - [  -0.0004074325261172,  0.0002808399149217, -0.0007163923000917 ]
  - [  -0.0004055744502693,  0.0002814034232870, -0.0007145425770432 ]
  - [  -0.0004053084412590,  0.0002814446634147, -0.0007154768100008 ]
  - [  -0.0004061761428602,  0.0002808931167237, -0.0007147160940804 ]
  - [  -0.0005261701298878,  0.0002816526684910, -0.0007174329366535 ]
  - [  -0.0004013129509985,  0.0002814899780788, -0.0007136802887544 ]
  - [  -0.0004043031367473,  0.0002814956824295, -0.0007127398857847 ]
  - [  -0.0004050305578858,  0.0002802858070936, -0.0007142467657104 ]
  - [  -0.0004060981154907,  0.0002816854394041, -0.0007140130037442 ]
  - [  -0.0004054091114085,  0.0002815604675561, -0.0007140927482396 ]
  - [   0.0004211793420836,  0.0005231843097135,  0.0003775550285354 ]
  - [   0.0004306093906052,  0.0005262873601168,  0.0003826129250228 ]
  - [   0.0004214898217469,  0.0005278559401631,  0.0003885370970238 ]
  - [   0.0006563725182787,  0.0005305722588673,  0.0003858195559587 ]
  - [   0.0004299478896428,  0.0005279652541503,  0.0003825413004961 ]
  - [   0.0004299610736780,  0.0005222871550359,  0.0003842903242912 ]
  - [   0.0004303830210119,  0.0005255357245915,  0.0003838371485472 ]
  - [   0.0004293277452234,  0.0005251054535620,  0.0003831166250166 ]
  - [   0.0004312836681493,  0.0005256420117803,  0.0003822396392934 ]
  - [   0.0004932216834277,  0.0004221010603942,  0.0004813329724129 ]
  - [   0.0004272040096112,  0.0005252108676359,  0.0003825898165815 ]