phonopy:
  version: "2.37.1"
  frequency_unit_conversion_factor: 15.633302
  symmetry_tolerance: 1.00000e-05

space_group:
  type: "P1"
  number: 1
  Hall_symbol: "P 1"

primitive_matrix:
- [ -1.000000000000000,  0.000000000000000, -1.000000000000000 ]
- [  0.000000000000000,  1.000000000000000,  0.000000000000000 ]
- [  0.000000000000000,  0.000000000000000, -1.000000000000000 ]

supercell_matrix:
- [   3,   0,   0 ]
- [   0,   3,   0 ]
- [   0,   0,   1 ]

primitive_cell:
  lattice:
  - [    -3.395612845286895,     0.000000000000000,     0.000000000000000 ] # a
  - [    -0.000006313062120,     4.446533071264456,     0.000000000000000 ] # b
  - [    -1.694844228956875,     2.222225331943595,   -11.506877811605170 ] # c
  points:
  - symbol: Li # 1
    coordinates: [  0.782022878135783,  0.464082646627511,  0.911399228502072 ]
    mass: 6.940000
  - symbol: Li # 2
    coordinates: [  0.069981351828925,  0.749365884650049,  0.337913836438429 ]
    mass: 6.940000
  - symbol: Sn # 3
    coordinates: [  0.348523890559525,  0.030196355362662,  0.778501827302745 ]
    mass: 118.710000
  - symbol: Sn # 4
    coordinates: [  0.925951935620832,  0.606442704394111,  0.624678124319577 ]
    mass: 118.710000
  - symbol: Sn # 5
    coordinates: [  0.503417370965882,  0.182948316992792,  0.470779194857831 ]
    mass: 118.710000
  - symbol: Sn # 6
    coordinates: [  0.211975413012880,  0.893320810757002,  0.052285056950510 ]
    mass: 118.710000
  - symbol: Sn # 7
    coordinates: [  0.640132075325512,  0.320435732006131,  0.197024757726162 ]
    mass: 118.710000
  reciprocal_lattice: # without 2pi
  - [    -0.294497649043824,    -0.000000418119448,     0.043376380625531 ] # a*
  - [    -0.000000000000000,     0.224894312933926,     0.043431923706341 ] # b*
  - [    -0.000000000000000,     0.000000000000000,    -0.086904546686979 ] # c*

unit_cell:
  lattice:
  - [     3.395612845286896,     0.000000000000000,     0.000000000000000 ] # a
  - [    -0.000006313062120,     4.446533071264457,     0.000000000000000 ] # b
  - [    -1.700768616330021,    -2.222225331943594,    11.506877811605170 ] # c
  points:
  - symbol: Li # 1
    coordinates: [  0.306577893362145,  0.464082646627511,  0.088600771497928 ]
    mass: 6.940000
    reduced_to: 1
  - symbol: Li # 2
    coordinates: [  0.592104811732646,  0.749365884650050,  0.662086163561571 ]
    mass: 6.940000
    reduced_to: 2
  - symbol: Sn # 3
    coordinates: [  0.872974282137731,  0.030196355362662,  0.221498172697255 ]
    mass: 118.710000
    reduced_to: 3
  - symbol: Sn # 4
    coordinates: [  0.449369940059590,  0.606442704394111,  0.375321875680423 ]
    mass: 118.710000
    reduced_to: 4
  - symbol: Sn # 5
    coordinates: [  0.025803434176287,  0.182948316992791,  0.529220805142169 ]
    mass: 118.710000
    reduced_to: 5
  - symbol: Sn # 6
    coordinates: [  0.735739530036609,  0.893320810757002,  0.947714943049490 ]
    mass: 118.710000
    reduced_to: 6
  - symbol: Sn # 7
    coordinates: [  0.162843166948326,  0.320435732006131,  0.802975242273838 ]
    mass: 118.710000
    reduced_to: 7

supercell:
  lattice:
  - [    10.186838535860687,     0.000000000000000,     0.000000000000000 ] # a
  - [    -0.000018939186361,    13.339599213793370,     0.000000000000000 ] # b
  - [    -1.700768616330021,    -2.222225331943594,    11.506877811605170 ] # c
  points:
  - symbol: Li # 1
    coordinates: [  0.102192631120715,  0.154694215542504,  0.088600771497928 ]
    mass: 6.940000
    reduced_to: 1
  - symbol: Li # 2
    coordinates: [  0.435525964454048,  0.154694215542504,  0.088600771497928 ]
    mass: 6.940000
    reduced_to: 1
  - symbol: Li # 3
    coordinates: [  0.768859297787381,  0.154694215542504,  0.088600771497928 ]
    mass: 6.940000
    reduced_to: 1
  - symbol: Li # 4
    coordinates: [  0.102192631120715,  0.488027548875837,  0.088600771497928 ]
    mass: 6.940000
    reduced_to: 1
  - symbol: Li # 5
    coordinates: [  0.435525964454048,  0.488027548875837,  0.088600771497928 ]
    mass: 6.940000
    reduced_to: 1
  - symbol: Li # 6
    coordinates: [  0.768859297787381,  0.488027548875837,  0.088600771497928 ]
    mass: 6.940000
    reduced_to: 1
  - symbol: Li # 7
    coordinates: [  0.102192631120715,  0.821360882209170,  0.088600771497928 ]
    mass: 6.940000
    reduced_to: 1
  - symbol: Li # 8
    coordinates: [  0.435525964454048,  0.821360882209170,  0.088600771497928 ]
    mass: 6.940000
    reduced_to: 1
  - symbol: Li # 9
    coordinates: [  0.768859297787381,  0.821360882209170,  0.088600771497928 ]
    mass: 6.940000
    reduced_to: 1
  - symbol: Li # 10
    coordinates: [  0.197368270577549,  0.249788628216683,  0.662086163561571 ]
    mass: 6.940000
    reduced_to: 10
  - symbol: Li # 11
    coordinates: [  0.530701603910882,  0.249788628216683,  0.662086163561571 ]
    mass: 6.940000
    reduced_to: 10
  - symbol: Li # 12
    coordinates: [  0.864034937244215,  0.249788628216683,  0.662086163561571 ]
    mass: 6.940000
    reduced_to: 10
  - symbol: Li # 13
    coordinates: [  0.197368270577549,  0.583121961550016,  0.662086163561571 ]
    mass: 6.940000
    reduced_to: 10
  - symbol: Li # 14
    coordinates: [  0.530701603910882,  0.583121961550016,  0.662086163561571 ]
    mass: 6.940000
    reduced_to: 10
  - symbol: Li # 15
    coordinates: [  0.864034937244215,  0.583121961550016,  0.662086163561571 ]
    mass: 6.940000
    reduced_to: 10
  - symbol: Li # 16
    coordinates: [  0.197368270577549,  0.916455294883350,  0.662086163561571 ]
    mass: 6.940000
    reduced_to: 10
  - symbol: Li # 17
    coordinates: [  0.530701603910882,  0.916455294883350,  0.662086163561571 ]
    mass: 6.940000
    reduced_to: 10
  - symbol: Li # 18
    coordinates: [  0.864034937244215,  0.916455294883350,  0.662086163561571 ]
    mass: 6.940000
    reduced_to: 10
  - symbol: Sn # 19
    coordinates: [  0.290991427379244,  0.010065451787554,  0.221498172697255 ]
    mass: 118.710000
    reduced_to: 19
  - symbol: Sn # 20
    coordinates: [  0.624324760712577,  0.010065451787554,  0.221498172697255 ]
    mass: 118.710000
    reduced_to: 19
  - symbol: Sn # 21
    coordinates: [  0.957658094045910,  0.010065451787554,  0.221498172697255 ]
    mass: 118.710000
    reduced_to: 19
  - symbol: Sn # 22
    coordinates: [  0.290991427379244,  0.343398785120887,  0.221498172697255 ]
    mass: 118.710000
    reduced_to: 19
  - symbol: Sn # 23
    coordinates: [  0.624324760712577,  0.343398785120887,  0.221498172697255 ]
    mass: 118.710000
    reduced_to: 19
  - symbol: Sn # 24
    coordinates: [  0.957658094045910,  0.343398785120887,  0.221498172697255 ]
    mass: 118.710000
    reduced_to: 19
  - symbol: Sn # 25
    coordinates: [  0.290991427379244,  0.676732118454221,  0.221498172697255 ]
    mass: 118.710000
    reduced_to: 19
  - symbol: Sn # 26
    coordinates: [  0.624324760712577,  0.676732118454221,  0.221498172697255 ]
    mass: 118.710000
    reduced_to: 19
  - symbol: Sn # 27
    coordinates: [  0.957658094045910,  0.676732118454221,  0.221498172697255 ]
    mass: 118.710000
    reduced_to: 19
  - symbol: Sn # 28
    coordinates: [  0.149789980019863,  0.202147568131370,  0.375321875680423 ]
    mass: 118.710000
    reduced_to: 28
  - symbol: Sn # 29
    coordinates: [  0.483123313353197,  0.202147568131370,  0.375321875680423 ]
    mass: 118.710000
    reduced_to: 28
  - symbol: Sn # 30
    coordinates: [  0.816456646686530,  0.202147568131370,  0.375321875680423 ]
    mass: 118.710000
    reduced_to: 28
  - symbol: Sn # 31
    coordinates: [  0.149789980019863,  0.535480901464704,  0.375321875680423 ]
    mass: 118.710000
    reduced_to: 28
  - symbol: Sn # 32
    coordinates: [  0.483123313353197,  0.535480901464704,  0.375321875680423 ]
    mass: 118.710000
    reduced_to: 28
  - symbol: Sn # 33
    coordinates: [  0.816456646686530,  0.535480901464704,  0.375321875680423 ]
    mass: 118.710000
    reduced_to: 28
  - symbol: Sn # 34
    coordinates: [  0.149789980019863,  0.868814234798037,  0.375321875680423 ]
    mass: 118.710000
    reduced_to: 28
  - symbol: Sn # 35
    coordinates: [  0.483123313353197,  0.868814234798037,  0.375321875680423 ]
    mass: 118.710000
    reduced_to: 28
  - symbol: Sn # 36
    coordinates: [  0.816456646686530,  0.868814234798037,  0.375321875680423 ]
    mass: 118.710000
    reduced_to: 28
  - symbol: Sn # 37
    coordinates: [  0.008601144725429,  0.060982772330930,  0.529220805142169 ]
    mass: 118.710000
    reduced_to: 37
  - symbol: Sn # 38
    coordinates: [  0.341934478058762,  0.060982772330930,  0.529220805142169 ]
    mass: 118.710000
    reduced_to: 37
  - symbol: Sn # 39
    coordinates: [  0.675267811392096,  0.060982772330930,  0.529220805142169 ]
    mass: 118.710000
    reduced_to: 37
  - symbol: Sn # 40
    coordinates: [  0.008601144725429,  0.394316105664264,  0.529220805142169 ]
    mass: 118.710000
    reduced_to: 37
  - symbol: Sn # 41
    coordinates: [  0.341934478058762,  0.394316105664264,  0.529220805142169 ]
    mass: 118.710000
    reduced_to: 37
  - symbol: Sn # 42
    coordinates: [  0.675267811392096,  0.394316105664264,  0.529220805142169 ]
    mass: 118.710000
    reduced_to: 37
  - symbol: Sn # 43
    coordinates: [  0.008601144725429,  0.727649438997597,  0.529220805142169 ]
    mass: 118.710000
    reduced_to: 37
  - symbol: Sn # 44
    coordinates: [  0.341934478058762,  0.727649438997597,  0.529220805142169 ]
    mass: 118.710000
    reduced_to: 37
  - symbol: Sn # 45
    coordinates: [  0.675267811392096,  0.727649438997597,  0.529220805142169 ]
    mass: 118.710000
    reduced_to: 37
  - symbol: Sn # 46
    coordinates: [  0.245246510012203,  0.297773603585667,  0.947714943049490 ]
    mass: 118.710000
    reduced_to: 46
  - symbol: Sn # 47
    coordinates: [  0.578579843345536,  0.297773603585667,  0.947714943049490 ]
    mass: 118.710000
    reduced_to: 46
  - symbol: Sn # 48
    coordinates: [  0.911913176678870,  0.297773603585667,  0.947714943049490 ]
    mass: 118.710000
    reduced_to: 46
  - symbol: Sn # 49
    coordinates: [  0.245246510012203,  0.631106936919001,  0.947714943049490 ]
    mass: 118.710000
    reduced_to: 46
  - symbol: Sn # 50
    coordinates: [  0.578579843345536,  0.631106936919001,  0.947714943049490 ]
    mass: 118.710000
    reduced_to: 46
  - symbol: Sn # 51
    coordinates: [  0.911913176678870,  0.631106936919001,  0.947714943049490 ]
    mass: 118.710000
    reduced_to: 46
  - symbol: Sn # 52
    coordinates: [  0.245246510012203,  0.964440270252334,  0.947714943049490 ]
    mass: 118.710000
    reduced_to: 46
  - symbol: Sn # 53
    coordinates: [  0.578579843345536,  0.964440270252334,  0.947714943049490 ]
    mass: 118.710000
    reduced_to: 46
  - symbol: Sn # 54
    coordinates: [  0.911913176678870,  0.964440270252334,  0.947714943049490 ]
    mass: 118.710000
    reduced_to: 46
  - symbol: Sn # 55
    coordinates: [  0.054281055649442,  0.106811910668710,  0.802975242273838 ]
    mass: 118.710000
    reduced_to: 55
  - symbol: Sn # 56
    coordinates: [  0.387614388982775,  0.106811910668710,  0.802975242273838 ]
    mass: 118.710000
    reduced_to: 55
  - symbol: Sn # 57
    coordinates: [  0.720947722316109,  0.106811910668710,  0.802975242273838 ]
    mass: 118.710000
    reduced_to: 55
  - symbol: Sn # 58
    coordinates: [  0.054281055649442,  0.440145244002044,  0.802975242273838 ]
    mass: 118.710000
    reduced_to: 55
  - symbol: Sn # 59
    coordinates: [  0.387614388982775,  0.440145244002044,  0.802975242273838 ]
    mass: 118.710000
    reduced_to: 55
  - symbol: Sn # 60
    coordinates: [  0.720947722316109,  0.440145244002044,  0.802975242273838 ]
    mass: 118.710000
    reduced_to: 55
  - symbol: Sn # 61
    coordinates: [  0.054281055649442,  0.773478577335377,  0.802975242273838 ]
    mass: 118.710000
    reduced_to: 55
  - symbol: Sn # 62
    coordinates: [  0.387614388982775,  0.773478577335377,  0.802975242273838 ]
    mass: 118.710000
    reduced_to: 55
  - symbol: Sn # 63
    coordinates: [  0.720947722316109,  0.773478577335377,  0.802975242273838 ]
    mass: 118.710000
    reduced_to: 55

displacements:
- atom:    1
  displacement:
    [   0.0100000000000000,  0.0000000000000000,  0.0000000000000000 ]
  forces:
  - [  -0.0128383152186871, -0.0021552201360464, -0.0299459788948298 ]
  - [   0.0001465779787395, -0.0021486647892743, -0.0299915540963411 ]
  - [   0.0001008420222206, -0.0021575586870313, -0.0298600383102894 ]
  - [  -0.0010758433490992, -0.0021550329402089, -0.0299243722110987 ]
  - [  -0.0008320480119437, -0.0020275150891393, -0.0298661105334759 ]
  - [  -0.0008321023778990, -0.0022814874537289, -0.0299852713942528 ]
  - [  -0.0010758574353531, -0.0021533677354455, -0.0299240313470364 ]
  - [  -0.0008317847969010, -0.0022820341400802, -0.0298641379922628 ]
  - [  -0.0008322104113176, -0.0020270179957151, -0.0299847759306431 ]
  - [   0.0008997382828966,  0.0018398511456326,  0.0298498068004847 ]
  - [   0.0008514158544131,  0.0018505863845348,  0.0299011655151844 ]
  - [   0.0008570323698223,  0.0018607871606946,  0.0300409626215696 ]
  - [   0.0008212127722800,  0.0018500682199374,  0.0299360360950232 ]
  - [   0.0009148374083452,  0.0018489186186343,  0.0299404598772526 ]
  - [   0.0008013430051506,  0.0018520134035498,  0.0299172550439835 ]
  - [   0.0008778313640505,  0.0018613063730299,  0.0298530459403992 ]
  - [   0.0008528388570994,  0.0018534562550485,  0.0299407821148634 ]
  - [   0.0008583514718339,  0.0018414545338601,  0.0300005674362183 ]
  - [   0.0016046804375947, -0.0029086754657328, -0.0173891633749008 ]
  - [   0.0003453658428043, -0.0013550402363762, -0.0185402296483517 ]
  - [   0.0015876085963100,  0.0001619667164050, -0.0196553803980350 ]
  - [   0.0016110124997795,  0.0002153181558242, -0.0173791795969009 ]
  - [   0.0003481408348307, -0.0013540824875236, -0.0185380727052689 ]
  - [   0.0015933988615870, -0.0028857351280749, -0.0196683071553707 ]
  - [   0.0002945594023913, -0.0013520744396374, -0.0185300894081593 ]
  - [   0.0003254080656916, -0.0013522342778742, -0.0185383930802345 ]
  - [   0.0002946194435935, -0.0013525460381061, -0.0185425244271755 ]
  - [  -0.0001353961415589,  0.0006857550470158,  0.0006563831120729 ]
  - [   0.0000966252628132,  0.0006845225580037,  0.0008210483938456 ]
  - [   0.0001177513040602,  0.0006870088400319,  0.0004827152006328 ]
  - [   0.0000285496935248,  0.0006858577253297,  0.0006600820925087 ]
  - [  -0.0000079031906353,  0.0006654679309577,  0.0006350693292916 ]
  - [   0.0000049555674195,  0.0007019040640444,  0.0006788983009756 ]
  - [   0.0000277971848845,  0.0006880166474730,  0.0006621587090194 ]
  - [  -0.0000081774542195,  0.0007050335407257,  0.0006361431442201 ]
  - [   0.0000053425319493,  0.0006730722961947,  0.0006736931391060 ]
  - [  -0.0003725967835635,  0.0015704010147601,  0.0175508856773376 ]
  - [  -0.0004202118143439,  0.0016795337432995,  0.0176529511809349 ]
  - [  -0.0004385876236483,  0.0016261637210846,  0.0175932757556438 ]
  - [  -0.0003903533797711,  0.0016816265415400,  0.0175495147705078 ]
  - [  -0.0004230921622366,  0.0015668990090489,  0.0176093950867653 ]
  - [  -0.0004423483624123,  0.0016259748954326,  0.0176330208778381 ]
  - [  -0.0004165684804320,  0.0016238742973655,  0.0175964161753654 ]
  - [  -0.0004488851409405,  0.0016257434617728,  0.0175648070871830 ]
  - [  -0.0003752773918677,  0.0016224372666329,  0.0176314190030098 ]
  - [   0.0009050872176886, -0.0005046579753980, -0.0010439828038216 ]
  - [  -0.0000147277169162, -0.0016178067307919,  0.0000127479434013 ]
  - [   0.0008894323837012, -0.0027038969565183,  0.0010525211691856 ]
  - [  -0.0001524412073195, -0.0016176073113456,  0.0000198781490326 ]
  - [  -0.0001131064782385, -0.0016184011474252,  0.0000124461948872 ]
  - [  -0.0001547760330141, -0.0016173803014681,  0.0000083483755589 ]
  - [   0.0008991668000817, -0.0027171964757144, -0.0010364875197411 ]
  - [  -0.0000192948209587, -0.0016168248839676,  0.0000117532908916 ]
  - [   0.0008842837996781, -0.0005455913487822,  0.0010426044464111 ]
  - [   0.0000747818703530,  0.0009638505871408,  0.0002572052180767 ]
  - [   0.0004543948743958,  0.0009614186710678,  0.0000557713210583 ]
  - [   0.0004695407114923,  0.0009647078113630,  0.0004964210093021 ]
  - [   0.0002833958133124,  0.0009641940705478,  0.0002516545355320 ]
  - [   0.0003109812387265,  0.0010083827655762,  0.0002470351755619 ]
  - [   0.0003095751744695,  0.0009163915528916,  0.0002859719097614 ]
  - [   0.0002822587266564,  0.0009628842235543,  0.0002628639340401 ]
  - [   0.0003098086453974,  0.0009184101363644,  0.0002352483570576 ]
  - [   0.0003113488492090,  0.0010124240070581,  0.0002876110374928 ]
- atom:    1
  displacement:
    [  -0.0100000000000000,  0.0000000000000000,  0.0000000000000000 ]
  forces:
  - [   0.0111110564321280, -0.0021545756608248, -0.0299446638673544 ]
  - [  -0.0018308367580175, -0.0021573365665972, -0.0298594571650028 ]
  - [  -0.0018764275591820, -0.0021487816702574, -0.0299901720136404 ]
  - [  -0.0006528819212690, -0.0021535262931138, -0.0299257673323154 ]
  - [  -0.0008975300006568, -0.0022815056145191, -0.0299843996763229 ]
  - [  -0.0008978403639048, -0.0020274457056075, -0.0298652052879333 ]
  - [  -0.0006530727841891, -0.0021548806689680, -0.0299243330955505 ]
  - [  -0.0008975968230516, -0.0020275022834539, -0.0299844369292259 ]
  - [  -0.0008976530516520, -0.0022816564887762, -0.0298635885119438 ]
  - [   0.0007907358231023,  0.0018603659700602,  0.0300106219947338 ]
  - [   0.0008402763633057,  0.0018505298066884,  0.0299620460718870 ]
  - [   0.0008329872507602,  0.0018405009759590,  0.0298211704939604 ]
  - [   0.0008703124476597,  0.0018509471556172,  0.0299259573221207 ]
  - [   0.0007765831542201,  0.0018524539191276,  0.0299228858202696 ]
  - [   0.0008904982823879,  0.0018477250123397,  0.0299449041485786 ]
  - [   0.0008128790650517,  0.0018426505848765,  0.0300098657608032 ]
  - [   0.0008378509664908,  0.0018501128070056,  0.0299228411167860 ]
  - [   0.0008322137873620,  0.0018632580759004,  0.0298621449619532 ]
  - [  -0.0009809948969632,  0.0001660406560404, -0.0196634307503700 ]
  - [   0.0002648227382451, -0.0013553418684751, -0.0185318887233734 ]
  - [  -0.0009917524876073, -0.0029038609936833, -0.0173960253596306 ]
  - [  -0.0009862857405096, -0.0028902261983603, -0.0196735709905624 ]
  - [   0.0002617093268782, -0.0013536049518734, -0.0185347720980644 ]
  - [  -0.0009998235618696,  0.0002104697341565, -0.0173843204975128 ]
  - [   0.0003144254442304, -0.0013523863162845, -0.0185434930026531 ]
  - [   0.0002846895949915, -0.0013524708338082, -0.0185348242521286 ]
  - [   0.0003153681464028, -0.0013519856147468, -0.0185304805636406 ]
  - [   0.0001366012729704,  0.0006855340907350,  0.0006542894989252 ]
  - [  -0.0001014371082420,  0.0006864182651043,  0.0004898253828287 ]
  - [  -0.0001132343895733,  0.0006852152873762,  0.0008289082907140 ]
  - [  -0.0000275764614344,  0.0006839408888482,  0.0006553784478456 ]
  - [   0.0000083438744696,  0.0007042954675853,  0.0006823106668890 ]
  - [  -0.0000040805898607,  0.0006664769025519,  0.0006369594484568 ]
  - [  -0.0000265822745860,  0.0006901057204232,  0.0006531323306262 ]
  - [   0.0000082078895502,  0.0006715236231685,  0.0006787949241698 ]
  - [  -0.0000061970204115,  0.0007034111768007,  0.0006405040621758 ]
  - [  -0.0004522945964709,  0.0016796187264845,  0.0176481343805790 ]
  - [  -0.0004080105572939,  0.0015702890232205,  0.0175438784062862 ]
  - [  -0.0003886751364917,  0.0016252276254818,  0.0176028013229370 ]
  - [  -0.0004371674731374,  0.0015689885476604,  0.0176459029316902 ]
  - [  -0.0004042901564389,  0.0016826838254929,  0.0175856798887253 ]
  - [  -0.0003865422331728,  0.0016238837270066,  0.0175612941384315 ]
  - [  -0.0004096679622307,  0.0016246722079813,  0.0175983421504498 ]
  - [  -0.0003792853094637,  0.0016215196810663,  0.0176310427486897 ]
  - [  -0.0004518106288742,  0.0016257199458778,  0.0175628103315830 ]
  - [  -0.0011753116268665, -0.0027094753459096,  0.0010548308491707 ]
  - [  -0.0002648590598255, -0.0016178474761546,  0.0000155419111252 ]
  - [  -0.0011794322635978, -0.0005096206441522, -0.0010427944362164 ]
  - [  -0.0001268361229450, -0.0016180386301130,  0.0000075064599514 ]
  - [  -0.0001668434415478, -0.0016166539862752,  0.0000133402645588 ]
  - [  -0.0001267895568162, -0.0016185501590371,  0.0000179596245289 ]
  - [  -0.0011685942299664, -0.0005393209867179,  0.0010447651147842 ]
  - [  -0.0002609112125356, -0.0016182914841920,  0.0000125281512737 ]
  - [  -0.0011749325785786, -0.0027115298435092, -0.0010335110127926 ]
  - [   0.0004622887936421,  0.0009628183906898,  0.0002723932266235 ]
  - [   0.0000687731662765,  0.0009646425605752,  0.0004820302128792 ]
  - [   0.0000777443492552,  0.0009622638463043,  0.0000384375452995 ]
  - [   0.0002524470328353,  0.0009627484250814,  0.0002709776163101 ]
  - [   0.0002241296460852,  0.0009175078012049,  0.0002762004733086 ]
  - [   0.0002274063735968,  0.0010092209558934,  0.0002369806170464 ]
  - [   0.0002540957648307,  0.0009646870894358,  0.0002612099051476 ]
  - [   0.0002246529329568,  0.0010110768489540,  0.0002877041697502 ]
  - [   0.0002229593519587,  0.0009168460383080,  0.0002363063395023 ]
- atom:    1
  displacement:
    [  -0.0000000141977177,  0.0099999999999899,  0.0000000000000000 ]
  forces:
  - [  -0.0008645497146063, -0.0185268111526966, -0.0299519263207912 ]
  - [  -0.0008695985889062, -0.0024566818028688, -0.0299253240227699 ]
  - [  -0.0008602146408521, -0.0024567910004407, -0.0299256835132837 ]
  - [  -0.0008636692073196, -0.0018982375040650, -0.0300402119755745 ]
  - [  -0.0007365493220277, -0.0020667060744017, -0.0298434458673000 ]
  - [  -0.0009932082612067, -0.0020667251665145, -0.0298420656472445 ]
  - [  -0.0008651748648845, -0.0019015510333702, -0.0298125073313713 ]
  - [  -0.0009906608611345, -0.0020676150452346, -0.0300065856426954 ]
  - [  -0.0007388921803795, -0.0020671912934631, -0.0300071910023689 ]
  - [   0.0008350408170372,  0.0019268405158073,  0.0298859607428312 ]
  - [   0.0008459588862024,  0.0018296095076948,  0.0299689583480358 ]
  - [   0.0008551974315196,  0.0019041210180148,  0.0298887342214584 ]
  - [   0.0008448726730421,  0.0018353078048676,  0.0299206990748644 ]
  - [   0.0008440003148280,  0.0019355742260814,  0.0299410410225391 ]
  - [   0.0008484795689583,  0.0018345933640376,  0.0299420543015003 ]
  - [   0.0008547112811357,  0.0018630119739100,  0.0299860462546349 ]
  - [   0.0008469272870570,  0.0017879586666822,  0.0298872217535973 ]
  - [   0.0008343391818926,  0.0018628033576533,  0.0299645531922579 ]
  - [  -0.0016283352160826,  0.0010159595403820, -0.0202842503786087 ]
  - [   0.0003050089580938, -0.0013801692984998, -0.0185338743031025 ]
  - [   0.0022343448363245,  0.0010118711506948, -0.0202790610492229 ]
  - [   0.0023056149948388,  0.0010871635749936, -0.0167191028594971 ]
  - [   0.0003050253726542, -0.0013844275381416, -0.0185410566627979 ]
  - [  -0.0016926757525653,  0.0010832393309101, -0.0167223662137985 ]
  - [   0.0003040533047169, -0.0013058225158602, -0.0185381658375263 ]
  - [   0.0003051831154153, -0.0013273393269628, -0.0185388177633286 ]
  - [   0.0003055740671698, -0.0013070540735498, -0.0185391120612621 ]
  - [  -0.0000003427267075,  0.0005293645663187,  0.0006517749279737 ]
  - [  -0.0000001596245056,  0.0006154614966363,  0.0006629740819335 ]
  - [   0.0000013294629753,  0.0006158038158901,  0.0006642043590546 ]
  - [  -0.0000013825483620,  0.0006989937974140,  0.0006756645161659 ]
  - [  -0.0000505185998918,  0.0006209644488990,  0.0006234184838831 ]
  - [   0.0000499766319990,  0.0006206745747477,  0.0006239898502827 ]
  - [   0.0000031306408346,  0.0007154390914366,  0.0006343077402562 ]
  - [   0.0000479314549011,  0.0006354365032166,  0.0006872666999698 ]
  - [  -0.0000484175980091,  0.0006374992663041,  0.0006844336166978 ]
  - [  -0.0004659821279347,  0.0016322722658515,  0.0175857916474342 ]
  - [  -0.0003606860991567,  0.0016015049768612,  0.0175843462347984 ]
  - [  -0.0004150461754762,  0.0015965029597282,  0.0176112651824951 ]
  - [  -0.0003598460461944,  0.0015906638000160,  0.0175628475844860 ]
  - [  -0.0004609993193299,  0.0015910242218524,  0.0175917558372021 ]
  - [  -0.0004192925698590,  0.0015843374421820,  0.0175665020942688 ]
  - [  -0.0004122562240809,  0.0016158230137080,  0.0176435336470604 ]
  - [  -0.0004209461621940,  0.0016161869280040,  0.0176132060587406 ]
  - [  -0.0004076694895048,  0.0016936808824539,  0.0176132135093212 ]
  - [   0.0014010095037520,  0.0001743792963680, -0.0015727505087852 ]
  - [  -0.0001394308928866, -0.0016656257212162,  0.0000305026769638 ]
  - [  -0.0016751019284129,  0.0001653160434216, -0.0015682354569435 ]
  - [  -0.0001393728889525, -0.0015347437001765,  0.0000109523534775 ]
  - [  -0.0001413579157088, -0.0015952268149704,  0.0000126920640469 ]
  - [  -0.0001394322607666, -0.0015340307727456,  0.0000127181410789 ]
  - [  -0.0016284356825054,  0.0001202217827085,  0.0015486404299736 ]
  - [  -0.0001393454294885, -0.0016610410530120,  0.0000023096799850 ]
  - [   0.0013415755238384,  0.0001155806239694,  0.0015424638986588 ]
  - [   0.0002651388640516,  0.0006542130140588,  0.0002593025565147 ]
  - [   0.0002704891958274,  0.0010533118620515,  0.0002495311200619 ]
  - [   0.0002683930797502,  0.0010529700666666,  0.0002739988267422 ]
  - [   0.0002695340081118,  0.0008485587313771,  0.0003132112324238 ]
  - [   0.0003219343489036,  0.0009946257341653,  0.0002389587461948 ]
  - [   0.0002104688028339,  0.0009955076966435,  0.0002126619219780 ]
  - [   0.0002695093862712,  0.0008498735260218,  0.0002230182290077 ]
  - [   0.0002070914488286,  0.0009941481985152,  0.0002970732748508 ]
  - [   0.0003277295036241,  0.0009954660199583,  0.0002980530261993 ]
- atom:    1
  displacement:
    [   0.0000000141977177, -0.0099999999999899,  0.0000000000000000 ]
  forces:
  - [  -0.0008637709543109,  0.0142182745039463, -0.0299459900707006 ]
  - [  -0.0008605984039605, -0.0018491593655199, -0.0299261137843132 ]
  - [  -0.0008691306575201, -0.0018491994123906, -0.0299253072589636 ]
  - [  -0.0008649576921016, -0.0024071834050119, -0.0298119056969881 ]
  - [  -0.0009913984686136, -0.0022419095039368, -0.0300063639879227 ]
  - [  -0.0007386698271148, -0.0022416182328016, -0.0300076529383659 ]
  - [  -0.0008635835256428, -0.0024107010103762, -0.0300380941480398 ]
  - [  -0.0007368205115199, -0.0022426014766097, -0.0298415161669254 ]
  - [  -0.0009928856743500, -0.0022424017079175, -0.0298403259366751 ]
  - [   0.0008550918428227,  0.0017730618128553,  0.0299766976386309 ]
  - [   0.0008458984666504,  0.0018710128497332,  0.0298955515027046 ]
  - [   0.0008352554868907,  0.0017968767788261,  0.0299760047346354 ]
  - [   0.0008456022478640,  0.0018656197935343,  0.0299423765391111 ]
  - [   0.0008473937050439,  0.0017657903954387,  0.0299227144569159 ]
  - [   0.0008443763945252,  0.0018650805577636,  0.0299216061830521 ]
  - [   0.0008355748141184,  0.0018415027298033,  0.0298785660415888 ]
  - [   0.0008436010684818,  0.0019161126110703,  0.0299774110317230 ]
  - [   0.0008567313198000,  0.0018419870175421,  0.0299001652747393 ]
  - [   0.0022980913054198, -0.0037785870954394, -0.0167355388402939 ]
  - [   0.0003047036007047, -0.0013259060215205, -0.0185403823852539 ]
  - [  -0.0016841916367412, -0.0037748916074634, -0.0167385712265968 ]
  - [  -0.0016355154803023, -0.0037424899637699, -0.0203009769320488 ]
  - [   0.0003053236287087, -0.0013277528341860, -0.0185341574251652 ]
  - [   0.0022401241585612, -0.0037381139118224, -0.0202976427972317 ]
  - [   0.0003041510935873, -0.0013986509293318, -0.0185348503291607 ]
  - [   0.0003052985994145, -0.0013773703249171, -0.0185350328683853 ]
  - [   0.0003050957457162, -0.0013974965550005, -0.0185333788394928 ]
  - [   0.0000016698613763,  0.0008424719562754,  0.0006531933322549 ]
  - [  -0.0000018794517018,  0.0007555382326245,  0.0006521330215037 ]
  - [   0.0000006700865924,  0.0007563467952423,  0.0006511830724776 ]
  - [   0.0000022421590984,  0.0006730690365657,  0.0006417098920792 ]
  - [   0.0000501402937516,  0.0007513994351029,  0.0006949454545975 ]
  - [  -0.0000483728945255,  0.0007500989595428,  0.0006927405484021 ]
  - [  -0.0000021038576961,  0.0006605538073927,  0.0006830152124166 ]
  - [  -0.0000486298267788,  0.0007390631362796,  0.0006291181780398 ]
  - [   0.0000483090989292,  0.0007371197571047,  0.0006311242468655 ]
  - [  -0.0003588858526200,  0.0016169239534065,  0.0176097825169563 ]
  - [  -0.0004675961099565,  0.0016475161537528,  0.0176086910068989 ]
  - [  -0.0004122682148591,  0.0016546477563679,  0.0175830796360970 ]
  - [  -0.0004673068178818,  0.0016604224219918,  0.0176320746541023 ]
  - [  -0.0003662554081529,  0.0016592546598986,  0.0176010280847549 ]
  - [  -0.0004097484925296,  0.0016654424834996,  0.0176276154816151 ]
  - [  -0.0004133561160415,  0.0016327055636793,  0.0175512991845608 ]
  - [  -0.0004076785407960,  0.0016313183587044,  0.0175816752016544 ]
  - [  -0.0004196699010208,  0.0015545573551208,  0.0175811983644962 ]
  - [  -0.0016367309726775, -0.0033758552744985,  0.0015578530728817 ]
  - [  -0.0001399379689246, -0.0015726382844150,  0.0000005029141903 ]
  - [   0.0013504866510630, -0.0033657285384834,  0.0015523619949818 ]
  - [  -0.0001399791799486, -0.0017011800082400,  0.0000157058238983 ]
  - [  -0.0001386147050653, -0.0016397756990045,  0.0000138171017170 ]
  - [  -0.0001417875755578, -0.0017019038787112,  0.0000131204724312 ]
  - [   0.0013939702184871, -0.0033900034613907, -0.0015664026141167 ]
  - [  -0.0001412771380274, -0.0015707984566689,  0.0000245943665504 ]
  - [  -0.0016665477305651, -0.0033860933035612, -0.0015598572790623 ]
  - [   0.0002712699933909,  0.0012726208660752,  0.0002733059227467 ]
  - [   0.0002617166901473,  0.0008725163643248,  0.0002758428454399 ]