phonopy:
  version: "2.37.1"
  frequency_unit_conversion_factor: 15.633302
  symmetry_tolerance: 1.00000e-05

space_group:
  type: "Fm-3m"
  number: 225
  Hall_symbol: "-F 4 2 3"

primitive_matrix:
- [  0.000000000000000,  1.000000000000000, -0.000000000000000 ]
- [  0.000000000000000,  0.000000000000000,  1.000000000000000 ]
- [  1.000000000000000,  0.000000000000000,  0.000000000000000 ]

supercell_matrix:
- [   4,   0,   0 ]
- [   0,   4,   0 ]
- [   0,   0,   4 ]

primitive_cell:
  lattice:
  - [     1.527311755000001,     0.881793852885730,     2.494089651936449 ] # a
  - [     3.054623510000000,     0.000000000000000,     0.000000000000000 ] # b
  - [     1.527311755000000,     2.645381558657189,     0.000000000000000 ] # c
  points:
  - symbol: Li # 1
    coordinates: [  0.000000000000000,  0.000000000000000,  0.000000000000000 ]
    mass: 6.940000
  reciprocal_lattice: # without 2pi
  - [     0.000000000000000,     0.000000000000000,     0.400947896649820 ] # a*
  - [     0.327372586744741,    -0.189008651082380,    -0.133649298883273 ] # b*
  - [     0.000000000000000,     0.378017302164761,    -0.133649298883273 ] # c*

unit_cell:
  lattice:
  - [     3.054623510000000,     0.000000000000000,     0.000000000000000 ] # a
  - [     1.527311755000001,     2.645381558657188,     0.000000000000000 ] # b
  - [     1.527311755000001,     0.881793852885730,     2.494089651936449 ] # c
  points:
  - symbol: Li # 1
    coordinates: [  0.000000000000000,  0.000000000000000,  0.000000000000000 ]
    mass: 6.940000
    reduced_to: 1

supercell:
  lattice:
  - [    12.218494040000000,     0.000000000000000,     0.000000000000000 ] # a
  - [     6.109247020000003,    10.581526234628754,     0.000000000000000 ] # b
  - [     6.109247020000004,     3.527175411542919,     9.976358607745794 ] # c
  points:
  - symbol: Li # 1
    coordinates: [  0.000000000000000,  0.000000000000000,  0.000000000000000 ]
    mass: 6.940000
    reduced_to: 1
  - symbol: Li # 2
    coordinates: [  0.250000000000000,  0.000000000000000,  0.000000000000000 ]
    mass: 6.940000
    reduced_to: 1
  - symbol: Li # 3
    coordinates: [  0.500000000000000,  0.000000000000000,  0.000000000000000 ]
    mass: 6.940000
    reduced_to: 1
  - symbol: Li # 4
    coordinates: [  0.750000000000000,  0.000000000000000,  0.000000000000000 ]
    mass: 6.940000
    reduced_to: 1
  - symbol: Li # 5
    coordinates: [  0.000000000000000,  0.250000000000000,  0.000000000000000 ]
    mass: 6.940000
    reduced_to: 1
  - symbol: Li # 6
    coordinates: [  0.250000000000000,  0.250000000000000,  0.000000000000000 ]
    mass: 6.940000
    reduced_to: 1
  - symbol: Li # 7
    coordinates: [  0.500000000000000,  0.250000000000000,  0.000000000000000 ]
    mass: 6.940000
    reduced_to: 1
  - symbol: Li # 8
    coordinates: [  0.750000000000000,  0.250000000000000,  0.000000000000000 ]
    mass: 6.940000
    reduced_to: 1
  - symbol: Li # 9
    coordinates: [  0.000000000000000,  0.500000000000000,  0.000000000000000 ]
    mass: 6.940000
    reduced_to: 1
  - symbol: Li # 10
    coordinates: [  0.250000000000000,  0.500000000000000,  0.000000000000000 ]
    mass: 6.940000
    reduced_to: 1
  - symbol: Li # 11
    coordinates: [  0.500000000000000,  0.500000000000000,  0.000000000000000 ]
    mass: 6.940000
    reduced_to: 1
  - symbol: Li # 12
    coordinates: [  0.750000000000000,  0.500000000000000,  0.000000000000000 ]
    mass: 6.940000
    reduced_to: 1
  - symbol: Li # 13
    coordinates: [  0.000000000000000,  0.750000000000000,  0.000000000000000 ]
    mass: 6.940000
    reduced_to: 1
  - symbol: Li # 14
    coordinates: [  0.250000000000000,  0.750000000000000,  0.000000000000000 ]
    mass: 6.940000
    reduced_to: 1
  - symbol: Li # 15
    coordinates: [  0.500000000000000,  0.750000000000000,  0.000000000000000 ]
    mass: 6.940000
    reduced_to: 1
  - symbol: Li # 16
    coordinates: [  0.750000000000000,  0.750000000000000,  0.000000000000000 ]
    mass: 6.940000
    reduced_to: 1
  - symbol: Li # 17
    coordinates: [  0.000000000000000,  0.000000000000000,  0.250000000000000 ]
    mass: 6.940000
    reduced_to: 1
  - symbol: Li # 18
    coordinates: [  0.250000000000000,  0.000000000000000,  0.250000000000000 ]
    mass: 6.940000
    reduced_to: 1
  - symbol: Li # 19
    coordinates: [  0.500000000000000,  0.000000000000000,  0.250000000000000 ]
    mass: 6.940000
    reduced_to: 1
  - symbol: Li # 20
    coordinates: [  0.750000000000000,  0.000000000000000,  0.250000000000000 ]
    mass: 6.940000
    reduced_to: 1
  - symbol: Li # 21
    coordinates: [  0.000000000000000,  0.250000000000000,  0.250000000000000 ]
    mass: 6.940000
    reduced_to: 1
  - symbol: Li # 22
    coordinates: [  0.250000000000000,  0.250000000000000,  0.250000000000000 ]
    mass: 6.940000
    reduced_to: 1
  - symbol: Li # 23
    coordinates: [  0.500000000000000,  0.250000000000000,  0.250000000000000 ]
    mass: 6.940000
    reduced_to: 1
  - symbol: Li # 24
    coordinates: [  0.750000000000000,  0.250000000000000,  0.250000000000000 ]
    mass: 6.940000
    reduced_to: 1
  - symbol: Li # 25
    coordinates: [  0.000000000000000,  0.500000000000000,  0.250000000000000 ]
    mass: 6.940000
    reduced_to: 1
  - symbol: Li # 26
    coordinates: [  0.250000000000000,  0.500000000000000,  0.250000000000000 ]
    mass: 6.940000
    reduced_to: 1
  - symbol: Li # 27
    coordinates: [  0.500000000000000,  0.500000000000000,  0.250000000000000 ]
    mass: 6.940000
    reduced_to: 1
  - symbol: Li # 28
    coordinates: [  0.750000000000000,  0.500000000000000,  0.250000000000000 ]
    mass: 6.940000
    reduced_to: 1
  - symbol: Li # 29
    coordinates: [  0.000000000000000,  0.750000000000000,  0.250000000000000 ]
    mass: 6.940000
    reduced_to: 1
  - symbol: Li # 30
    coordinates: [  0.250000000000000,  0.750000000000000,  0.250000000000000 ]
    mass: 6.940000
    reduced_to: 1
  - symbol: Li # 31
    coordinates: [  0.500000000000000,  0.750000000000000,  0.250000000000000 ]
    mass: 6.940000
    reduced_to: 1
  - symbol: Li # 32
    coordinates: [  0.750000000000000,  0.750000000000000,  0.250000000000000 ]
    mass: 6.940000
    reduced_to: 1
  - symbol: Li # 33
    coordinates: [  0.000000000000000,  0.000000000000000,  0.500000000000000 ]
    mass: 6.940000
    reduced_to: 1
  - symbol: Li # 34
    coordinates: [  0.250000000000000,  0.000000000000000,  0.500000000000000 ]
    mass: 6.940000
    reduced_to: 1
  - symbol: Li # 35
    coordinates: [  0.500000000000000,  0.000000000000000,  0.500000000000000 ]
    mass: 6.940000
    reduced_to: 1
  - symbol: Li # 36
    coordinates: [  0.750000000000000,  0.000000000000000,  0.500000000000000 ]
    mass: 6.940000
    reduced_to: 1
  - symbol: Li # 37
    coordinates: [  0.000000000000000,  0.250000000000000,  0.500000000000000 ]
    mass: 6.940000
    reduced_to: 1
  - symbol: Li # 38
    coordinates: [  0.250000000000000,  0.250000000000000,  0.500000000000000 ]
    mass: 6.940000
    reduced_to: 1
  - symbol: Li # 39
    coordinates: [  0.500000000000000,  0.250000000000000,  0.500000000000000 ]
    mass: 6.940000
    reduced_to: 1
  - symbol: Li # 40
    coordinates: [  0.750000000000000,  0.250000000000000,  0.500000000000000 ]
    mass: 6.940000
    reduced_to: 1
  - symbol: Li # 41
    coordinates: [  0.000000000000000,  0.500000000000000,  0.500000000000000 ]
    mass: 6.940000
    reduced_to: 1
  - symbol: Li # 42
    coordinates: [  0.250000000000000,  0.500000000000000,  0.500000000000000 ]
    mass: 6.940000
    reduced_to: 1
  - symbol: Li # 43
    coordinates: [  0.500000000000000,  0.500000000000000,  0.500000000000000 ]
    mass: 6.940000
    reduced_to: 1
  - symbol: Li # 44
    coordinates: [  0.750000000000000,  0.500000000000000,  0.500000000000000 ]
    mass: 6.940000
    reduced_to: 1
  - symbol: Li # 45
    coordinates: [  0.000000000000000,  0.750000000000000,  0.500000000000000 ]
    mass: 6.940000
    reduced_to: 1
  - symbol: Li # 46
    coordinates: [  0.250000000000000,  0.750000000000000,  0.500000000000000 ]
    mass: 6.940000
    reduced_to: 1
  - symbol: Li # 47
    coordinates: [  0.500000000000000,  0.750000000000000,  0.500000000000000 ]
    mass: 6.940000
    reduced_to: 1
  - symbol: Li # 48
    coordinates: [  0.750000000000000,  0.750000000000000,  0.500000000000000 ]
    mass: 6.940000
    reduced_to: 1
  - symbol: Li # 49
    coordinates: [  0.000000000000000,  0.000000000000000,  0.750000000000000 ]
    mass: 6.940000
    reduced_to: 1
  - symbol: Li # 50
    coordinates: [  0.250000000000000,  0.000000000000000,  0.750000000000000 ]
    mass: 6.940000
    reduced_to: 1
  - symbol: Li # 51
    coordinates: [  0.500000000000000,  0.000000000000000,  0.750000000000000 ]
    mass: 6.940000
    reduced_to: 1
  - symbol: Li # 52
    coordinates: [  0.750000000000000,  0.000000000000000,  0.750000000000000 ]
    mass: 6.940000
    reduced_to: 1
  - symbol: Li # 53
    coordinates: [  0.000000000000000,  0.250000000000000,  0.750000000000000 ]
    mass: 6.940000
    reduced_to: 1
  - symbol: Li # 54
    coordinates: [  0.250000000000000,  0.250000000000000,  0.750000000000000 ]
    mass: 6.940000
    reduced_to: 1
  - symbol: Li # 55
    coordinates: [  0.500000000000000,  0.250000000000000,  0.750000000000000 ]
    mass: 6.940000
    reduced_to: 1
  - symbol: Li # 56
    coordinates: [  0.750000000000000,  0.250000000000000,  0.750000000000000 ]
    mass: 6.940000
    reduced_to: 1
  - symbol: Li # 57
    coordinates: [  0.000000000000000,  0.500000000000000,  0.750000000000000 ]
    mass: 6.940000
    reduced_to: 1
  - symbol: Li # 58
    coordinates: [  0.250000000000000,  0.500000000000000,  0.750000000000000 ]
    mass: 6.940000
    reduced_to: 1
  - symbol: Li # 59
    coordinates: [  0.500000000000000,  0.500000000000000,  0.750000000000000 ]
    mass: 6.940000
    reduced_to: 1
  - symbol: Li # 60
    coordinates: [  0.750000000000000,  0.500000000000000,  0.750000000000000 ]
    mass: 6.940000
    reduced_to: 1
  - symbol: Li # 61
    coordinates: [  0.000000000000000,  0.750000000000000,  0.750000000000000 ]
    mass: 6.940000
    reduced_to: 1
  - symbol: Li # 62
    coordinates: [  0.250000000000000,  0.750000000000000,  0.750000000000000 ]
    mass: 6.940000
    reduced_to: 1
  - symbol: Li # 63
    coordinates: [  0.500000000000000,  0.750000000000000,  0.750000000000000 ]
    mass: 6.940000
    reduced_to: 1
  - symbol: Li # 64
    coordinates: [  0.750000000000000,  0.750000000000000,  0.750000000000000 ]
    mass: 6.940000
    reduced_to: 1

displacements:
- atom:    1
  displacement:
    [   0.0100000000000000,  0.0000000000000000,  0.0000000000000000 ]
  forces:
  - [  -0.0114693846553564,  0.0000001384323696, -0.0000002710003173 ]
  - [   0.0036670528352261,  0.0000003631575964,  0.0000002265005605 ]
  - [   0.0000581461936235,  0.0000003838067641,  0.0000002578890417 ]
  - [   0.0035739596933126,  0.0000004582107067,  0.0000001903390512 ]
  - [   0.0007851095870137,  0.0016441904008389, -0.0000161295756698 ]
  - [  -0.0000346833840013, -0.0000384310260415, -0.0000068811859819 ]
  - [  -0.0000345017760992,  0.0000382681755582,  0.0000066436405177 ]
  - [   0.0007881005294621, -0.0016283765435219,  0.0000161845600815 ]
  - [  -0.0000135526061058,  0.0000410858920077,  0.0000189715210581 ]
  - [   0.0000316724181175,  0.0000002225860953,  0.0000002989545465 ]
  - [  -0.0000135041773319, -0.0000410280626966, -0.0000191891158465 ]
  - [   0.0000315301440423,  0.0000003120512702, -0.0000003161549103 ]
  - [   0.0007889755070210,  0.0016278666444123, -0.0000163253207575 ]
  - [   0.0007846038788557, -0.0016446043737233,  0.0000161827338161 ]
  - [  -0.0000344561412930,  0.0000379909761250,  0.0000069568341132 ]
  - [  -0.0000345567241311, -0.0000385791063309, -0.0000064209307311 ]
  - [   0.0007850993424654,  0.0005332026630640,  0.0015552997356281 ]
  - [  -0.0000347141176462, -0.0000190436840057, -0.0000340864062309 ]
  - [  -0.0000345297157764,  0.0000192718580365,  0.0000336822122335 ]
  - [   0.0007879963377491, -0.0005271928384900, -0.0015407633036375 ]
  - [  -0.0000277617946267, -0.0000236760824919, -0.0000165123492479 ]
  - [   0.0000138379327836,  0.0000002235174179,  0.0000003753229976 ]
  - [  -0.0000280896201730,  0.0000230055302382,  0.0000165021046996 ]
  - [   0.0001374874264002,  0.0000005038455129,  0.0000005885958672 ]
  - [   0.0000068126246333, -0.0000039245933294,  0.0000174137749127 ]
  - [   0.0000052144750953,  0.0000039432197809, -0.0000176094472408 ]
  - [  -0.0000019520521164, -0.0000025881454349,  0.0000042356550694 ]
  - [  -0.0000021019950509,  0.0000034481345210, -0.0000047290814109 ]
  - [  -0.0001321599120274,  0.0000032419338822, -0.0000053644180298 ]
  - [  -0.0004654014483094,  0.0003487411886454, -0.0004935618489981 ]
  - [   0.0000027138739824, -0.0000003753229976, -0.0000000232830644 ]
  - [  -0.0004704337334260, -0.0003501740284264,  0.0004948424175382 ]
  - [  -0.0000135190784931,  0.0000321473926306,  0.0000322014093399 ]
  - [   0.0000317042577080,  0.0000006873160601, -0.0000000651925802 ]
  - [  -0.0000133775174618, -0.0000312915071845, -0.0000324817374349 ]
  - [   0.0000315174620482,  0.0000002598389983,  0.0000001220032573 ]
  - [   0.0000068238005042,  0.0000149598345160, -0.0000097025185823 ]
  - [   0.0000051865354180, -0.0000152233988047,  0.0000094566494226 ]
  - [  -0.0000019557774067,  0.0000028065405786, -0.0000040708109736 ]
  - [  -0.0000021038576961, -0.0000036815181375,  0.0000045383349061 ]
  - [  -0.0000686468556523,  0.0000001434236765, -0.0000001294538379 ]
  - [   0.0000030194325973,  0.0000002868473530,  0.0000001220032573 ]
  - [   0.0000519175082445,  0.0000004060566425,  0.0000000754371285 ]
  - [   0.0000027730493457,  0.0000003203749657,  0.0000000484287739 ]
  - [   0.0000051809474826,  0.0000146208330989, -0.0000095022842288 ]
  - [  -0.0000020181337277, -0.0000036833807826,  0.0000045057386160 ]
  - [  -0.0000022668391466,  0.0000027357600629, -0.0000041276216507 ]
  - [   0.0000067716464400, -0.0000155209563673,  0.0000100899487734 ]
  - [   0.0007889410480857,  0.0005271174013615,  0.0015405798330903 ]
  - [   0.0007845163345337, -0.0005330443382263, -0.0015556025318801 ]
  - [  -0.0000343779101968,  0.0000190930441022,  0.0000338553400070 ]
  - [  -0.0000344701111317, -0.0000190380960703, -0.0000338827412634 ]
  - [  -0.0001321742311120, -0.0000039134174585,  0.0000053354160627 ]
  - [  -0.0004654591903090, -0.0003485845809337,  0.0004936699988320 ]
  - [   0.0000026803463697,  0.0000003100358299, -0.0000000445907062 ]
  - [  -0.0004704119637609,  0.0003501782193780, -0.0004946743720211 ]
  - [   0.0000055143609643, -0.0000043064355850,  0.0000174473643710 ]
  - [  -0.0000020423904061,  0.0000024698674679, -0.0000044581865950 ]
  - [  -0.0000022687017918, -0.0000035027042031,  0.0000044775442802 ]
  - [   0.0000067166984081,  0.0000038314610720, -0.0000175296554517 ]
  - [  -0.0000272896140814, -0.0000229877441598, -0.0000165427845786 ]
  - [   0.0001371614634991, -0.0000001177977538, -0.0000004471112334 ]
  - [  -0.0000278335064650,  0.0000238587745116,  0.0000164941520779 ]
  - [   0.0000132266432047, -0.0000001982371032, -0.0000004093853931 ]

force_constants:
  format: "full"
  shape: [ 64, 64 ]
  elements:
  - # (1, 1)
    - [     1.146938410539276,     0.000000000000000,     0.000000000000000 ]
    - [     0.000000000000000,     1.146938410539277,    -0.000000000000000 ]
    - [     0.000000000000000,    -0.000000000000000,     1.146938410539277 ]
  - # (1, 2)
    - [    -0.362062115393271,     0.000000000000000,     0.000000000000000 ]
    - [     0.000000000000000,     0.015812152497329,     0.001856690375550 ]
    - [     0.000000000000000,     0.001856690375550,     0.014499274142213 ]
  - # (1, 3)
    - [    -0.005788936732807,    -0.000000000000000,     0.000000000000000 ]
    - [    -0.000000000000000,     0.003723730989364,    -0.002211846750271 ]
    - [    -0.000000000000000,    -0.002211846750271,     0.005287742825425 ]
  - # (1, 4)
    - [    -0.362062115393271,     0.000000000000000,     0.000000000000000 ]
    - [     0.000000000000000,     0.015812152497329,     0.001856690375550 ]
    - [     0.000000000000000,     0.001856690375550,     0.014499274142213 ]
  - # (1, 5)
    - [    -0.078656414475321,    -0.163624357714853,     0.001607941032189 ]
    - [    -0.163624357714853,    -0.267593548420621,    -0.000928345187775 ]
    - [     0.001607941032189,    -0.000928345187775,     0.014499274142213 ]
  - # (1, 6)
    - [     0.003458143873821,     0.003833416720890,     0.000688565245460 ]
    - [     0.003833416720890,    -0.000968304477622,     0.000397543329821 ]
    - [     0.000688565245460,     0.000397543329821,     0.000167733674209 ]
  - # (1, 7)
    - [     0.003458143873821,    -0.003833416720890,    -0.000688565245460 ]
    - [    -0.003833416720890,    -0.000968304477622,     0.000397543329821 ]
    - [    -0.000688565245460,     0.000397543329821,     0.000167733674209 ]
  - # (1, 8)
    - [    -0.078656414475321,     0.163624357714853,    -0.001607941032189 ]
    - [     0.163624357714853,    -0.267593548420621,    -0.000928345187775 ]
    - [    -0.001607941032189,    -0.000928345187775,     0.014499274142213 ]
  - # (1, 9)
    - [     0.001345564058821,    -0.004119105952580,    -0.001915515475012 ]
    - [    -0.004119105952580,    -0.003410769802265,     0.001105923375135 ]
    - [    -0.001915515475012,     0.001105923375135,     0.005287742825425 ]
  - # (1, 10)
    - [    -0.003181528653343,     0.000000000000000,     0.000000000000000 ]
    - [    -0.000000000000000,     0.005671368049543,    -0.000795086659642 ]
    - [    -0.000000000000000,    -0.000795086659642,     0.000167733674209 ]
  - # (1, 11)
    - [     0.001345564058821,     0.004119105952580,     0.001915515475012 ]
    - [     0.004119105952580,    -0.003410769802265,     0.001105923375135 ]
    - [     0.001915515475012,     0.001105923375135,     0.005287742825425 ]
  - # (1, 12)
    - [    -0.003181528653343,     0.000000000000000,     0.000000000000000 ]
    - [    -0.000000000000000,     0.005671368049543,    -0.000795086659642 ]
    - [    -0.000000000000000,    -0.000795086659642,     0.000167733674209 ]
  - # (1, 13)
    - [    -0.078656414475321,    -0.163624357714853,     0.001607941032189 ]
    - [    -0.163624357714853,    -0.267593548420621,    -0.000928345187775 ]
    - [     0.001607941032189,    -0.000928345187775,     0.014499274142213 ]
  - # (1, 14)
    - [    -0.078656414475321,     0.163624357714853,    -0.001607941032189 ]
    - [     0.163624357714853,    -0.267593548420621,    -0.000928345187775 ]
    - [    -0.001607941032189,    -0.000928345187775,     0.014499274142213 ]
  - # (1, 15)
    - [     0.003458143873821,    -0.003833416720890,    -0.000688565245460 ]
    - [    -0.003833416720890,    -0.000968304477622,     0.000397543329821 ]
    - [    -0.000688565245460,     0.000397543329821,     0.000167733674209 ]
  - # (1, 16)
    - [     0.003458143873821,     0.003833416720890,     0.000688565245460 ]
    - [     0.003833416720890,    -0.000968304477622,     0.000397543329821 ]
    - [     0.000688565245460,     0.000397543329821,     0.000167733674209 ]
  - # (1, 17)
    - [    -0.078656414475321,    -0.053025471228139,    -0.154802504220684 ]
    - [    -0.053025471228139,    -0.017427874300375,    -0.089375267483040 ]
    - [    -0.154802504220684,    -0.089375267483040,    -0.235666399978033 ]
  - # (1, 18)
    - [     0.003458143873821,     0.001926991112769,     0.003384658196120 ]
    - [     0.001926991112769,     0.000291378843411,    -0.000047821979404 ]
    - [     0.003384658196120,    -0.000047821979404,    -0.001091949646825 ]
  - # (1, 19)
    - [     0.003458143873821,    -0.001926991112769,    -0.003384658196120 ]
    - [    -0.001926991112769,     0.000291378843411,    -0.000047821979404 ]
    - [    -0.003384658196120,    -0.000047821979404,    -0.001091949646825 ]
  - # (1, 20)
    - [    -0.078656414475321,     0.053025471228139,     0.154802504220684 ]
    - [     0.053025471228139,    -0.017427874300375,    -0.089375267483040 ]
    - [     0.154802504220684,    -0.089375267483040,    -0.235666399978033 ]
  - # (1, 21)
    - [     0.002751893357538,     0.002334745038460,     0.001650914049037 ]
    - [     0.002334745038460,     0.000997629359694,     0.002955110970669 ]
    - [     0.001650914049037,     0.002955110970669,    -0.001091949646825 ]
  - # (1, 22)
    - [    -0.001353283795780,    -0.000000000000000,    -0.000000000000000 ]
    - [    -0.000000000000000,    -0.001353283795780,     0.000000000000000 ]
    - [    -0.000000000000000,    -0.000000000000000,    -0.001353283795780 ]
  - # (1, 23)
    - [     0.002751893357538,    -0.002334745038460,    -0.001650914049037 ]
    - [    -0.002334745038460,     0.000997629359694,     0.002955110970669 ]
    - [    -0.001650914049037,     0.002955110970669,    -0.001091949646825 ]
  - # (1, 24)
    - [    -0.013731926588262,     0.000000000000000,     0.000000000000000 ]
    - [     0.000000000000000,     0.066967064792406,     0.057062804040185 ]
    - [     0.000000000000000,     0.057062804040184,     0.026617569102072 ]
  - # (1, 25)
    - [    -0.000585753155511,     0.000407753925691,    -0.001733744147083 ]
    - [     0.000407753925691,     0.004335275872743,    -0.002907288991265 ]
    - [    -0.001733744147083,    -0.002907288991265,    -0.001091949646825 ]
  - # (1, 26)
    - [    -0.000585753155511,    -0.000407753925691,     0.001733744147083 ]
    - [    -0.000407753925691,     0.004335275872743,    -0.002907288991265 ]
    - [     0.001733744147083,    -0.002907288991265,    -0.001091949646825 ]
  - # (1, 27)
    - [     0.000221305141153,     0.000295132857676,    -0.000435530607050 ]
    - [     0.000295132857676,    -0.000119484928498,    -0.000251453713221 ]
    - [    -0.000435530607050,    -0.000251453713221,     0.000036090924433 ]
  - # (1, 28)
    - [     0.000221305141153,    -0.000295132857676,     0.000435530607050 ]
    - [    -0.000295132857676,    -0.000119484928498,    -0.000251453713221 ]
    - [     0.000435530607050,    -0.000251453713221,     0.000036090924433 ]
  - # (1, 29)
    - [     0.013186395787098,     0.000000000000000,    -0.000000000000000 ]
    - [     0.000000000000000,    -0.109270684562794,     0.178750534966080 ]
    - [    -0.000000000000000,     0.178750534966080,    -0.235666399978033 ]
  - # (1, 30)
    - [     0.046792316947239,    -0.034943688297720,     0.049417837909973 ]
    - [    -0.034943688297720,     0.006442821256905,    -0.028531402020092 ]
    - [     0.049417837909973,    -0.028531402020092,     0.026617569102072 ]
  - # (1, 31)
    - [    -0.000289879963324,     0.000000000000000,    -0.000000000000000 ]
    - [    -0.000000000000000,     0.000391700175979,     0.000502907426441 ]
    - [    -0.000000000000000,     0.000502907426441,     0.000036090924433 ]
  - # (1, 32)
    - [     0.046792316947239,     0.034943688297720,    -0.049417837909973 ]
    - [     0.034943688297720,     0.006442821256905,    -0.028531402020092 ]
    - [    -0.049417837909973,    -0.028531402020092,     0.026617569102072 ]
  - # (1, 33)
    - [     0.001345564058821,    -0.003179000626659,    -0.003245025176990 ]
    - [    -0.003179000626659,     0.005016357793932,    -0.001873516159462 ]
    - [    -0.003245025176990,    -0.001873516159462,    -0.003139384770771 ]
  - # (1, 34)
    - [    -0.003181528653343,    -0.000000000000000,    -0.000000000000000 ]
    - [    -0.000000000000000,     0.000279505343767,     0.001111224681599 ]
    - [    -0.000000000000000,     0.001111224681599,     0.005559596379985 ]
  - # (1, 35)
    - [     0.001345564058821,     0.003179000626659,     0.003245025176990 ]
    - [     0.003179000626659,     0.005016357793932,    -0.001873516159462 ]
    - [     0.003245025176990,    -0.001873516159462,    -0.003139384770771 ]
  - # (1, 36)
    - [    -0.003181528653343,    -0.000000000000000,    -0.000000000000000 ]
    - [    -0.000000000000000,     0.000279505343767,     0.001111224681599 ]
    - [    -0.000000000000000,     0.001111224681599,     0.005559596379985 ]
  - # (1, 37)
    - [    -0.000585753155511,    -0.001498671682430,     0.000962348803577 ]
    - [    -0.001498671682430,    -0.002316270154066,    -0.000555612340799 ]
    - [     0.000962348803577,    -0.000555612340799,     0.005559596379985 ]
  - # (1, 38)
    - [    -0.000585753155511,     0.001498671682430,    -0.000962348803577 ]
    - [     0.001498671682429,    -0.002316270154066,    -0.000555612340799 ]
    - [    -0.000962348803577,    -0.000555612340799,     0.005559596379985 ]
  - # (1, 39)
    - [     0.000221305141153,    -0.000312244574987,     0.000423430795701 ]
    - [    -0.000312244574987,    -0.000139243837691,    -0.000244467883881 ]
    - [     0.000423430795701,    -0.000244467883881,     0.000055849833626 ]
  - # (1, 40)
    - [     0.000221305141153,     0.000312244574987,    -0.000423430795701 ]
    - [     0.000312244574987,    -0.000139243837691,    -0.000244467883881 ]
    - [    -0.000423430795701,    -0.000244467883881,     0.000055849833626 ]
  - # (1, 41)
    - [     0.006851754661487,     0.000000000000000,    -0.000000000000000 ]
    - [    -0.000000000000000,    -0.000489832808735,     0.003747032318924 ]
    - [    -0.000000000000000,     0.003747032318924,    -0.003139384770771 ]
  - # (1, 42)
    - [    -0.000319518327113,     0.000000000000000,     0.000000000000000 ]
    - [    -0.000000000000000,     0.000401579630575,     0.000488935767763 ]
    - [     0.000000000000000,     0.000488935767763,     0.000055849833626 ]
  - # (1, 43)
    - [    -0.005191805820814,    -0.000000000000000,    -0.000000000000000 ]
    - [    -0.000000000000000,    -0.005191805820814,     0.000000000000000 ]
    - [    -0.000000000000000,    -0.000000000000000,    -0.005191805820814 ]
  - # (1, 44)
    - [    -0.000319518327113,     0.000000000000000,     0.000000000000000 ]
    - [    -0.000000000000000,     0.000401579630575,     0.000488935767763 ]
    - [     0.000000000000000,     0.000488935767763,     0.000055849833626 ]
  - # (1, 45)
    - [    -0.000585753155511,    -0.001498671682430,     0.000962348803577 ]
    - [    -0.001498671682430,    -0.002316270154066,    -0.000555612340799 ]
    - [     0.000962348803577,    -0.000555612340799,     0.005559596379985 ]
  - # (1, 46)
    - [     0.000221305141153,     0.000312244574987,    -0.000423430795701 ]
    - [     0.000312244574987,    -0.000139243837691,    -0.000244467883881 ]
    - [    -0.000423430795701,    -0.000244467883881,     0.000055849833626 ]
  - # (1, 47)
    - [     0.000221305141153,    -0.000312244574987,     0.000423430795701 ]
    - [    -0.000312244574987,    -0.000139243837691,    -0.000244467883881 ]
    - [     0.000423430795701,    -0.000244467883881,     0.000055849833626 ]
  - # (1, 48)
    - [    -0.000585753155511,     0.001498671682430,    -0.000962348803577 ]
    - [     0.001498671682429,    -0.002316270154066,    -0.000555612340799 ]
    - [    -0.000962348803577,    -0.000555612340799,     0.005559596379985 ]
  - # (1, 49)
    - [    -0.078656414475321,    -0.053025471228139,    -0.154802504220684 ]
    - [    -0.053025471228139,    -0.017427874300375,    -0.089375267483040 ]
    - [    -0.154802504220684,    -0.089375267483040,    -0.235666399978033 ]
  - # (1, 50)
    - [    -0.078656414475321,     0.053025471228139,     0.154802504220684 ]
    - [     0.053025471228139,    -0.017427874300375,    -0.089375267483040 ]
    - [     0.154802504220684,    -0.089375267483040,    -0.235666399978033 ]
  - # (1, 51)
    - [     0.003458143873821,    -0.001926991112769,    -0.003384658196120 ]
    - [    -0.001926991112769,     0.000291378843411,    -0.000047821979404 ]
    - [    -0.003384658196120,    -0.000047821979404,    -0.001091949646825 ]
  - # (1, 52)
    - [     0.003458143873821,     0.001926991112769,     0.003384658196120 ]
    - [     0.001926991112769,     0.000291378843411,    -0.000047821979404 ]
    - [     0.003384658196120,    -0.000047821979404,    -0.001091949646825 ]
  - # (1, 53)
    - [     0.013186395787098,     0.000000000000000,    -0.000000000000000 ]
    - [     0.000000000000000,    -0.109270684562794,     0.178750534966080 ]
    - [    -0.000000000000000,     0.178750534966080,    -0.235666399978033 ]
  - # (1, 54)
    - [     0.046792316947239,     0.034943688297720,    -0.049417837909973 ]
    - [     0.034943688297720,     0.006442821256905,    -0.028531402020092 ]
    - [    -0.049417837909973,    -0.028531402020092,     0.026617569102072 ]
  - # (1, 55)
    - [    -0.000289879963324,     0.000000000000000,    -0.000000000000000 ]
    - [    -0.000000000000000,     0.000391700175979,     0.000502907426441 ]
    - [    -0.000000000000000,     0.000502907426441,     0.000036090924433 ]
  - # (1, 56)
    - [     0.046792316947239,    -0.034943688297720,     0.049417837909973 ]
    - [    -0.034943688297720,     0.006442821256905,    -0.028531402020092 ]
    - [     0.049417837909973,    -0.028531402020092,     0.026617569102072 ]
  - # (1, 57)
    - [    -0.000585753155511,     0.000407753925691,    -0.001733744147083 ]
    - [     0.000407753925691,     0.004335275872743,    -0.002907288991265 ]
    - [    -0.001733744147083,    -0.002907288991265,    -0.001091949646825 ]
  - # (1, 58)
    - [     0.000221305141153,    -0.000295132857676,     0.000435530607050 ]
    - [    -0.000295132857676,    -0.000119484928498,    -0.000251453713221 ]
    - [     0.000435530607050,    -0.000251453713221,     0.000036090924433 ]
  - # (1, 59)
    - [     0.000221305141153,     0.000295132857676,    -0.000435530607050 ]
    - [     0.000295132857676,    -0.000119484928498,    -0.000251453713221 ]
    - [    -0.000435530607050,    -0.000251453713221,     0.000036090924433 ]
  - # (1, 60)