# Thermal properties / unit cell (natom)

unit:
  temperature:   K
  free_energy:   kJ/mol
  entropy:       J/K/mol
  heat_capacity: J/K/mol

natom: 1    
cutoff_frequency: 0.00000
num_modes: 192000
num_integrated_modes: 191037

zero_point_energy:       3.5546502

thermal_properties:
- temperature:         0.0000000
  free_energy:         3.5546502
  entropy:             0.0000000
  heat_capacity:       0.0000000
  energy:              3.5546502

- temperature:        10.0000000
  free_energy:         3.5544363
  entropy:             0.0683398
  heat_capacity:       0.1464896
  energy:              3.5551197

- temperature:        20.0000000
  free_energy:         3.5527392
  entropy:             0.3012564
  heat_capacity:       0.6564210
  energy:              3.5587644

- temperature:        30.0000000
  free_energy:         3.5477185
  entropy:             0.7408960
  heat_capacity:       1.6657596
  energy:              3.5699454

- temperature:        40.0000000
  free_energy:         3.5371464
  entropy:             1.4114339
  heat_capacity:       3.1287419
  energy:              3.5936038

- temperature:        50.0000000
  free_energy:         3.5187813
  entropy:             2.2938371
  heat_capacity:       4.8778549
  energy:              3.6334732

- temperature:        60.0000000
  free_energy:         3.4906986
  entropy:             3.3474102
  heat_capacity:       6.7429995
  energy:              3.6915433

- temperature:        70.0000000
  free_energy:         3.4514152
  entropy:             4.5264921
  heat_capacity:       8.5906655
  energy:              3.7682697

- temperature:        80.0000000
  free_energy:         3.3998920
  entropy:             5.7888611
  heat_capacity:      10.3330120
  energy:              3.8630009

- temperature:        90.0000000
  free_energy:         3.3354785
  entropy:             7.0993361
  heat_capacity:      11.9230116
  energy:              3.9744188

- temperature:       100.0000000
  free_energy:         3.2578369
  entropy:             8.4305696
  heat_capacity:      13.3434388
  energy:              4.1008938

- temperature:       110.0000000
  free_energy:         3.1668659
  entropy:             9.7623642
  heat_capacity:      14.5957184
  energy:              4.2407260

- temperature:       120.0000000
  free_energy:         3.0626359
  entropy:            11.0804142
  heat_capacity:      15.6913610
  energy:              4.3922856

- temperature:       130.0000000
  free_energy:         2.9453363
  entropy:            12.3749837
  heat_capacity:      16.6463225
  energy:              4.5540842

- temperature:       140.0000000
  free_energy:         2.8152359
  entropy:            13.6397446
  heat_capacity:      17.4776739
  energy:              4.7248001

- temperature:       150.0000000
  free_energy:         2.6726538
  entropy:            14.8708446
  heat_capacity:      18.2018232
  energy:              4.9032805

- temperature:       160.0000000
  free_energy:         2.5179383
  entropy:            16.0661930
  heat_capacity:      18.8336867
  energy:              5.0885292

- temperature:       170.0000000
  free_energy:         2.3514520
  entropy:            17.2249325
  heat_capacity:      19.3863995
  energy:              5.2796906

- temperature:       180.0000000
  free_energy:         2.1735618
  entropy:            18.3470532
  heat_capacity:      19.8713120
  energy:              5.4760313

- temperature:       190.0000000
  free_energy:         1.9846312
  entropy:            19.4331162
  heat_capacity:      20.2981241
  energy:              5.6769233

- temperature:       200.0000000
  free_energy:         1.7850165
  entropy:            20.4840560
  heat_capacity:      20.6750729
  energy:              5.8818278

- temperature:       210.0000000
  free_energy:         1.5750633
  entropy:            21.5010410
  heat_capacity:      21.0091314
  energy:              6.0902819

- temperature:       220.0000000
  free_energy:         1.3551046
  entropy:            22.4853755
  heat_capacity:      21.3061970
  energy:              6.3018872

- temperature:       230.0000000
  free_energy:         1.1254600
  entropy:            23.4384313
  heat_capacity:      21.5712594
  energy:              6.5162993

- temperature:       240.0000000
  free_energy:         0.8864356
  entropy:            24.3616012
  heat_capacity:      21.8085462
  energy:              6.7332198

- temperature:       250.0000000
  free_energy:         0.6383230
  entropy:            25.2562663
  heat_capacity:      22.0216471
  energy:              6.9523896

- temperature:       260.0000000
  free_energy:         0.3814007
  entropy:            26.1237756
  heat_capacity:      22.2136177
  energy:              7.1735824

- temperature:       270.0000000
  free_energy:         0.1159337
  entropy:            26.9654318
  heat_capacity:      22.3870666
  energy:              7.3966003

- temperature:       280.0000000
  free_energy:        -0.1578259
  entropy:            27.7824834
  heat_capacity:      22.5442273
  energy:              7.6212695

- temperature:       290.0000000
  free_energy:        -0.4396379
  entropy:            28.5761203
  heat_capacity:      22.6870182
  energy:              7.8474370

- temperature:       300.0000000
  free_energy:        -0.7292740
  entropy:            29.3474716
  heat_capacity:      22.8170923
  energy:              8.0749675

- temperature:       310.0000000
  free_energy:        -1.0265166
  entropy:            30.0976059
  heat_capacity:      22.9358787
  energy:              8.3037412

- temperature:       320.0000000
  free_energy:        -1.3311588
  entropy:            30.8275323
  heat_capacity:      23.0446164
  energy:              8.5336516

- temperature:       330.0000000
  free_energy:        -1.6430031
  entropy:            31.5382023
  heat_capacity:      23.1443832
  energy:              8.7646036

- temperature:       340.0000000
  free_energy:        -1.9618616
  entropy:            32.2305121
  heat_capacity:      23.2361195
  energy:              8.9965125

- temperature:       350.0000000
  free_energy:        -2.2875550
  entropy:            32.9053057
  heat_capacity:      23.3206482
  energy:              9.2293020

- temperature:       360.0000000
  free_energy:        -2.6199120
  entropy:            33.5633773
  heat_capacity:      23.3986917
  energy:              9.4629038

- temperature:       370.0000000
  free_energy:        -2.9587693
  entropy:            34.2054747
  heat_capacity:      23.4708857
  energy:              9.6972564

- temperature:       380.0000000
  free_energy:        -3.3039706
  entropy:            34.8323014
  heat_capacity:      23.5377911
  energy:              9.9323039

- temperature:       390.0000000
  free_energy:        -3.6553666
  entropy:            35.4445201
  heat_capacity:      23.5999045
  energy:             10.1679962

- temperature:       400.0000000
  free_energy:        -4.0128144
  entropy:            36.0427548
  heat_capacity:      23.6576663
  energy:             10.4042875

- temperature:       410.0000000
  free_energy:        -4.3761771
  entropy:            36.6275937
  heat_capacity:      23.7114682
  energy:             10.6411363

- temperature:       420.0000000
  free_energy:        -4.7453235
  entropy:            37.1995912
  heat_capacity:      23.7616594
  energy:             10.8785049

- temperature:       430.0000000
  free_energy:        -5.1201278
  entropy:            37.7592706
  heat_capacity:      23.8085520
  energy:             11.1163585

- temperature:       440.0000000
  free_energy:        -5.5004695
  entropy:            38.3071257
  heat_capacity:      23.8524255
  energy:             11.3546658

- temperature:       450.0000000
  free_energy:        -5.8862325
  entropy:            38.8436229
  heat_capacity:      23.8935308
  energy:             11.5933978

- temperature:       460.0000000
  free_energy:        -6.2773055
  entropy:            39.3692033
  heat_capacity:      23.9320934
  energy:             11.8325280

- temperature:       470.0000000
  free_energy:        -6.6735816
  entropy:            39.8842839
  heat_capacity:      23.9683167
  energy:             12.0720319

- temperature:       480.0000000
  free_energy:        -7.0749575
  entropy:            40.3892597
  heat_capacity:      24.0023843
  energy:             12.3118871

- temperature:       490.0000000
  free_energy:        -7.4813343
  entropy:            40.8845046
  heat_capacity:      24.0344624
  energy:             12.5520730

- temperature:       500.0000000
  free_energy:        -7.8926164
  entropy:            41.3703732
  heat_capacity:      24.0647015
  energy:             12.7925702

- temperature:       510.0000000
  free_energy:        -8.3087116
  entropy:            41.8472019
  heat_capacity:      24.0932384
  energy:             13.0333613

- temperature:       520.0000000
  free_energy:        -8.7295313
  entropy:            42.3153098
  heat_capacity:      24.1201974
  energy:             13.2744298

- temperature:       530.0000000
  free_energy:        -9.1549898
  entropy:            42.7750003
  heat_capacity:      24.1456918
  energy:             13.5157604

- temperature:       540.0000000
  free_energy:        -9.5850043
  entropy:            43.2265617
  heat_capacity:      24.1698250
  energy:             13.7573391

- temperature:       550.0000000
  free_energy:       -10.0194948
  entropy:            43.6702682
  heat_capacity:      24.1926915
  energy:             13.9991527

- temperature:       560.0000000
  free_energy:       -10.4583843
  entropy:            44.1063808
  heat_capacity:      24.2143778
  energy:             14.2411890

- temperature:       570.0000000
  free_energy:       -10.9015980
  entropy:            44.5351483
  heat_capacity:      24.2349632
  energy:             14.4834365

- temperature:       580.0000000
  free_energy:       -11.3490636
  entropy:            44.9568075
  heat_capacity:      24.2545205
  energy:             14.7258848

- temperature:       590.0000000
  free_energy:       -11.8007112
  entropy:            45.3715846
  heat_capacity:      24.2731166
  energy:             14.9685237

- temperature:       600.0000000
  free_energy:       -12.2564731
  entropy:            45.7796953
  heat_capacity:      24.2908130
  energy:             15.2113441

- temperature:       610.0000000
  free_energy:       -12.7162836
  entropy:            46.1813455
  heat_capacity:      24.3076666
  energy:             15.4543372

- temperature:       620.0000000
  free_energy:       -13.1800791
  entropy:            46.5767321
  heat_capacity:      24.3237298
  energy:             15.6974948

- temperature:       630.0000000
  free_energy:       -13.6477979
  entropy:            46.9660433
  heat_capacity:      24.3390508
  energy:             15.9408093

- temperature:       640.0000000
  free_energy:       -14.1193803
  entropy:            47.3494591
  heat_capacity:      24.3536745
  energy:             16.1842735

- temperature:       650.0000000
  free_energy:       -14.5947681
  entropy:            47.7271518
  heat_capacity:      24.3676424
  energy:             16.4278806

- temperature:       660.0000000
  free_energy:       -15.0739048
  entropy:            48.0992865
  heat_capacity:      24.3809929
  energy:             16.6716243

- temperature:       670.0000000
  free_energy:       -15.5567358
  entropy:            48.4660214
  heat_capacity:      24.3937616
  energy:             16.9154985

- temperature:       680.0000000
  free_energy:       -16.0432077
  entropy:            48.8275080
  heat_capacity:      24.4059818
  energy:             17.1594977

- temperature:       690.0000000
  free_energy:       -16.5332689
  entropy:            49.1838919
  heat_capacity:      24.4176842
  energy:             17.4036165

- temperature:       700.0000000
  free_energy:       -17.0268690
  entropy:            49.5353126
  heat_capacity:      24.4288976
  energy:             17.6478498

- temperature:       710.0000000
  free_energy:       -17.5239591
  entropy:            49.8819042
  heat_capacity:      24.4396488
  energy:             17.8921929

- temperature:       720.0000000
  free_energy:       -18.0244915
  entropy:            50.2237955
  heat_capacity:      24.4499626
  energy:             18.1366413

- temperature:       730.0000000
  free_energy:       -18.5284197
  entropy:            50.5611103
  heat_capacity:      24.4598624
  energy:             18.3811907

- temperature:       740.0000000
  free_energy:       -19.0356988
  entropy:            50.8939676
  heat_capacity:      24.4693700
  energy:             18.6258372

- temperature:       750.0000000
  free_energy:       -19.5462846
  entropy:            51.2224820
  heat_capacity:      24.4785057
  energy:             18.8705769

- temperature:       760.0000000
  free_energy:       -20.0601343
  entropy:            51.5467638
  heat_capacity:      24.4872886
  energy:             19.1154062

- temperature:       770.0000000
  free_energy:       -20.5772061
  entropy:            51.8669191
  heat_capacity:      24.4957366
  energy:             19.3603216

- temperature:       780.0000000
  free_energy:       -21.0974593
  entropy:            52.1830502
  heat_capacity:      24.5038664
  energy:             19.6053198

- temperature:       790.0000000
  free_energy:       -21.6208541
  entropy:            52.4952556
  heat_capacity:      24.5116937
  energy:             19.8503979

- temperature:       800.0000000
  free_energy:       -22.1473516
  entropy:            52.8036305
  heat_capacity:      24.5192334
  energy:             20.0955527

- temperature:       810.0000000
  free_energy:       -22.6769142
  entropy:            53.1082665
  heat_capacity:      24.5264992
  energy:             20.3407816

- temperature:       820.0000000
  free_energy:       -23.2095048
  entropy:            53.4092520
  heat_capacity:      24.5335043
  energy:             20.5860819

- temperature:       830.0000000
  free_energy:       -23.7450874
  entropy:            53.7066726
  heat_capacity:      24.5402610
  energy:             20.8314509

- temperature:       840.0000000
  free_energy:       -24.2836267
  entropy:            54.0006106
  heat_capacity:      24.5467808
  energy:             21.0768863

- temperature:       850.0000000
  free_energy:       -24.8250882
  entropy:            54.2911459
  heat_capacity:      24.5530746
  energy:             21.3223858

- temperature:       860.0000000
  free_energy:       -25.3694385
  entropy:            54.5783553
  heat_capacity:      24.5591527
  energy:             21.5679471

- temperature:       870.0000000
  free_energy:       -25.9166445
  entropy:            54.8623134
  heat_capacity:      24.5650248
  energy:             21.8135681

- temperature:       880.0000000
  free_energy:       -26.4666742
  entropy:            55.1430921
  heat_capacity:      24.5707002
  energy:             22.0592469

- temperature:       890.0000000
  free_energy:       -27.0194960
  entropy:            55.4207612
  heat_capacity:      24.5761875
  energy:             22.3049815

- temperature:       900.0000000
  free_energy:       -27.5750792
  entropy:            55.6953881
  heat_capacity:      24.5814948
  energy:             22.5507701

- temperature:       910.0000000
  free_energy:       -28.1333938
  entropy:            55.9670381
  heat_capacity:      24.5866300
  energy:             22.7966108

- temperature:       920.0000000
  free_energy:       -28.6944103
  entropy:            56.2357743
  heat_capacity:      24.5916004
  energy:             23.0425021

- temperature:       930.0000000
  free_energy:       -29.2580998
  entropy:            56.5016582
  heat_capacity:      24.5964129
  energy:             23.2884423

- temperature:       940.0000000
  free_energy:       -29.8244341
  entropy:            56.7647489
  heat_capacity:      24.6010742
  energy:             23.5344299

- temperature:       950.0000000
  free_energy:       -30.3933857
  entropy:            57.0251042
  heat_capacity:      24.6055904
  energy:             23.7804633

- temperature:       960.0000000
  free_energy:       -30.9649273
  entropy:            57.2827797
  heat_capacity:      24.6099677
  energy:             24.0265412

- temperature:       970.0000000
  free_energy:       -31.5390325
  entropy:            57.5378296
  heat_capacity:      24.6142114
  energy:             24.2726622

- temperature:       980.0000000
  free_energy:       -32.1156753
  entropy:            57.7903064
  heat_capacity:      24.6183272
  energy:             24.5188250

- temperature:       990.0000000
  free_energy:       -32.6948302
  entropy:            58.0402612
  heat_capacity:      24.6223199
  energy:             24.7650283

- temperature:      1000.0000000
  free_energy:       -33.2764723
  entropy:            58.2877433
  heat_capacity:      24.6261946
  energy:             25.0112710
