phonopy:
  version: "2.37.1"
  frequency_unit_conversion_factor: 15.633302
  symmetry_tolerance: 1.00000e-05

space_group:
  type: "P1"
  number: 1
  Hall_symbol: "P 1"

primitive_matrix:
- [  1.000000000000000, -0.000000000000000,  0.000000000000000 ]
- [  0.000000000000000, -1.000000000000000,  0.000000000000000 ]
- [  0.000000000000000,  0.000000000000000, -1.000000000000000 ]

supercell_matrix:
- [   3,   0,   0 ]
- [   0,   2,   0 ]
- [   0,   0,   1 ]

primitive_cell:
  lattice:
  - [     4.782610309577473,     0.000000000000000,     0.000000000000000 ] # a
  - [     0.000190356930886,    -6.165782664769113,     0.000000000000000 ] # b
  - [     2.391230280498380,    -1.515211617356646,   -13.352072217746533 ] # c
  points:
  - symbol: Li # 1
    coordinates: [  0.581149370537144,  0.315716088719656,  0.902778425930496 ]
    mass: 6.940000
  - symbol: Li # 2
    coordinates: [  0.697346483109443,  0.005527968631486,  0.670758026211389 ]
    mass: 6.940000
  - symbol: Li # 3
    coordinates: [  0.805968400018760,  0.567810186171206,  0.453144107236690 ]
    mass: 6.940000
  - symbol: Li # 4
    coordinates: [  0.921952519629955,  0.254161351159276,  0.220951096319730 ]
    mass: 6.940000
  - symbol: Li # 5
    coordinates: [  0.368958357402019,  0.910241352117701,  0.327004940335246 ]
    mass: 6.940000
  - symbol: Li # 6
    coordinates: [  0.477353691135076,  0.623729349890021,  0.110127299023433 ]
    mass: 6.940000
  - symbol: Li # 7
    coordinates: [  0.134079253016631,  0.659803486583372,  0.797226343447594 ]
    mass: 6.940000
  - symbol: Li # 8
    coordinates: [  0.025698657043772,  0.945343279159311,  0.013753197341918 ]
    mass: 6.940000
  - symbol: Sn # 9
    coordinates: [  0.584278923533008,  0.818279693615561,  0.896730629247779 ]
    mass: 118.710000
  - symbol: Sn # 10
    coordinates: [  0.371031154740889,  0.416075903989486,  0.322825336507683 ]
    mass: 118.710000
  - symbol: Sn # 11
    coordinates: [  0.251599265265812,  0.787036339927638,  0.562056209866728 ]
    mass: 118.710000
  - symbol: Sn # 12
    coordinates: [  0.815254258678039,  0.069208108802503,  0.434583035817308 ]
    mass: 118.710000
  - symbol: Sn # 13
    coordinates: [  0.251559847547959,  0.287107173986026,  0.562150995596127 ]
    mass: 118.710000
  - symbol: Sn # 14
    coordinates: [  0.687994555354229,  0.503910427422317,  0.689362442066174 ]
    mass: 118.710000
  - symbol: Sn # 15
    coordinates: [  0.027258927334015,  0.452129528295247,  0.010444109953609 ]
    mass: 118.710000
  - symbol: Sn # 16
    coordinates: [  0.132050908923611,  0.154253410588532,  0.801139165872133 ]
    mass: 118.710000
  - symbol: Sn # 17
    coordinates: [  0.475748035489531,  0.116940914793713,  0.113473220000895 ]
    mass: 118.710000
  - symbol: Sn # 18
    coordinates: [  0.918860099808471,  0.751735324899623,  0.227150873012389 ]
    mass: 118.710000
  reciprocal_lattice: # without 2pi
  - [     0.209090838531719,     0.000006455285965,     0.037445465781935 ] # a*
  - [     0.000000000000000,    -0.162185411710007,     0.018405024776764 ] # b*
  - [     0.000000000000000,    -0.000000000000000,    -0.074894741706900 ] # c*

unit_cell:
  lattice:
  - [     4.782610309577474,     0.000000000000000,     0.000000000000000 ] # a
  - [    -0.000190356930886,     6.165782664769111,     0.000000000000000 ] # b
  - [    -2.391230280498379,     1.515211617356646,    13.352072217746530 ] # c
  points:
  - symbol: Li # 1
    coordinates: [  0.581149370537144,  0.684283911280344,  0.097221574069504 ]
    mass: 6.940000
    reduced_to: 1
  - symbol: Li # 2
    coordinates: [  0.697346483109443,  0.994472031368514,  0.329241973788612 ]
    mass: 6.940000
    reduced_to: 2
  - symbol: Li # 3
    coordinates: [  0.805968400018760,  0.432189813828794,  0.546855892763310 ]
    mass: 6.940000
    reduced_to: 3
  - symbol: Li # 4
    coordinates: [  0.921952519629955,  0.745838648840724,  0.779048903680270 ]
    mass: 6.940000
    reduced_to: 4
  - symbol: Li # 5
    coordinates: [  0.368958357402019,  0.089758647882299,  0.672995059664754 ]
    mass: 6.940000
    reduced_to: 5
  - symbol: Li # 6
    coordinates: [  0.477353691135076,  0.376270650109979,  0.889872700976568 ]
    mass: 6.940000
    reduced_to: 6
  - symbol: Li # 7
    coordinates: [  0.134079253016631,  0.340196513416628,  0.202773656552406 ]
    mass: 6.940000
    reduced_to: 7
  - symbol: Li # 8
    coordinates: [  0.025698657043772,  0.054656720840689,  0.986246802658082 ]
    mass: 6.940000
    reduced_to: 8
  - symbol: Sn # 9
    coordinates: [  0.584278923533008,  0.181720306384439,  0.103269370752221 ]
    mass: 118.710000
    reduced_to: 9
  - symbol: Sn # 10
    coordinates: [  0.371031154740889,  0.583924096010514,  0.677174663492317 ]
    mass: 118.710000
    reduced_to: 10
  - symbol: Sn # 11
    coordinates: [  0.251599265265812,  0.212963660072362,  0.437943790133272 ]
    mass: 118.710000
    reduced_to: 11
  - symbol: Sn # 12
    coordinates: [  0.815254258678039,  0.930791891197497,  0.565416964182692 ]
    mass: 118.710000
    reduced_to: 12
  - symbol: Sn # 13
    coordinates: [  0.251559847547959,  0.712892826013974,  0.437849004403873 ]
    mass: 118.710000
    reduced_to: 13
  - symbol: Sn # 14
    coordinates: [  0.687994555354229,  0.496089572577683,  0.310637557933826 ]
    mass: 118.710000
    reduced_to: 14
  - symbol: Sn # 15
    coordinates: [  0.027258927334015,  0.547870471704753,  0.989555890046391 ]
    mass: 118.710000
    reduced_to: 15
  - symbol: Sn # 16
    coordinates: [  0.132050908923611,  0.845746589411468,  0.198860834127867 ]
    mass: 118.710000
    reduced_to: 16
  - symbol: Sn # 17
    coordinates: [  0.475748035489531,  0.883059085206287,  0.886526779999105 ]
    mass: 118.710000
    reduced_to: 17
  - symbol: Sn # 18
    coordinates: [  0.918860099808471,  0.248264675100377,  0.772849126987611 ]
    mass: 118.710000
    reduced_to: 18

supercell:
  lattice:
  - [    14.347830928732421,     0.000000000000000,     0.000000000000000 ] # a
  - [    -0.000380713861772,    12.331565329538222,     0.000000000000000 ] # b
  - [    -2.391230280498379,     1.515211617356646,    13.352072217746530 ] # c
  points:
  - symbol: Li # 1
    coordinates: [  0.193716456845715,  0.342141955640172,  0.097221574069504 ]
    mass: 6.940000
    reduced_to: 1
  - symbol: Li # 2
    coordinates: [  0.527049790179048,  0.342141955640172,  0.097221574069504 ]
    mass: 6.940000
    reduced_to: 1
  - symbol: Li # 3
    coordinates: [  0.860383123512381,  0.342141955640172,  0.097221574069504 ]
    mass: 6.940000
    reduced_to: 1
  - symbol: Li # 4
    coordinates: [  0.193716456845715,  0.842141955640172,  0.097221574069504 ]
    mass: 6.940000
    reduced_to: 1
  - symbol: Li # 5
    coordinates: [  0.527049790179048,  0.842141955640172,  0.097221574069504 ]
    mass: 6.940000
    reduced_to: 1
  - symbol: Li # 6
    coordinates: [  0.860383123512381,  0.842141955640172,  0.097221574069504 ]
    mass: 6.940000
    reduced_to: 1
  - symbol: Li # 7
    coordinates: [  0.232448827703148,  0.497236015684257,  0.329241973788612 ]
    mass: 6.940000
    reduced_to: 7
  - symbol: Li # 8
    coordinates: [  0.565782161036481,  0.497236015684257,  0.329241973788612 ]
    mass: 6.940000
    reduced_to: 7
  - symbol: Li # 9
    coordinates: [  0.899115494369814,  0.497236015684257,  0.329241973788612 ]
    mass: 6.940000
    reduced_to: 7
  - symbol: Li # 10
    coordinates: [  0.232448827703148,  0.997236015684257,  0.329241973788612 ]
    mass: 6.940000
    reduced_to: 7
  - symbol: Li # 11
    coordinates: [  0.565782161036481,  0.997236015684257,  0.329241973788612 ]
    mass: 6.940000
    reduced_to: 7
  - symbol: Li # 12
    coordinates: [  0.899115494369814,  0.997236015684257,  0.329241973788612 ]
    mass: 6.940000
    reduced_to: 7
  - symbol: Li # 13
    coordinates: [  0.268656133339587,  0.216094906914397,  0.546855892763310 ]
    mass: 6.940000
    reduced_to: 13
  - symbol: Li # 14
    coordinates: [  0.601989466672920,  0.216094906914397,  0.546855892763310 ]
    mass: 6.940000
    reduced_to: 13
  - symbol: Li # 15
    coordinates: [  0.935322800006253,  0.216094906914397,  0.546855892763310 ]
    mass: 6.940000
    reduced_to: 13
  - symbol: Li # 16
    coordinates: [  0.268656133339587,  0.716094906914397,  0.546855892763310 ]
    mass: 6.940000
    reduced_to: 13
  - symbol: Li # 17
    coordinates: [  0.601989466672920,  0.716094906914397,  0.546855892763310 ]
    mass: 6.940000
    reduced_to: 13
  - symbol: Li # 18
    coordinates: [  0.935322800006253,  0.716094906914397,  0.546855892763310 ]
    mass: 6.940000
    reduced_to: 13
  - symbol: Li # 19
    coordinates: [  0.307317506543318,  0.372919324420362,  0.779048903680270 ]
    mass: 6.940000
    reduced_to: 19
  - symbol: Li # 20
    coordinates: [  0.640650839876652,  0.372919324420362,  0.779048903680270 ]
    mass: 6.940000
    reduced_to: 19
  - symbol: Li # 21
    coordinates: [  0.973984173209985,  0.372919324420362,  0.779048903680270 ]
    mass: 6.940000
    reduced_to: 19
  - symbol: Li # 22
    coordinates: [  0.307317506543318,  0.872919324420362,  0.779048903680270 ]
    mass: 6.940000
    reduced_to: 19
  - symbol: Li # 23
    coordinates: [  0.640650839876652,  0.872919324420362,  0.779048903680270 ]
    mass: 6.940000
    reduced_to: 19
  - symbol: Li # 24
    coordinates: [  0.973984173209985,  0.872919324420362,  0.779048903680270 ]
    mass: 6.940000
    reduced_to: 19
  - symbol: Li # 25
    coordinates: [  0.122986119134006,  0.044879323941149,  0.672995059664754 ]
    mass: 6.940000
    reduced_to: 25
  - symbol: Li # 26
    coordinates: [  0.456319452467340,  0.044879323941149,  0.672995059664754 ]
    mass: 6.940000
    reduced_to: 25
  - symbol: Li # 27
    coordinates: [  0.789652785800673,  0.044879323941149,  0.672995059664754 ]
    mass: 6.940000
    reduced_to: 25
  - symbol: Li # 28
    coordinates: [  0.122986119134006,  0.544879323941149,  0.672995059664754 ]
    mass: 6.940000
    reduced_to: 25
  - symbol: Li # 29
    coordinates: [  0.456319452467340,  0.544879323941149,  0.672995059664754 ]
    mass: 6.940000
    reduced_to: 25
  - symbol: Li # 30
    coordinates: [  0.789652785800673,  0.544879323941149,  0.672995059664754 ]
    mass: 6.940000
    reduced_to: 25
  - symbol: Li # 31
    coordinates: [  0.159117897045025,  0.188135325054989,  0.889872700976568 ]
    mass: 6.940000
    reduced_to: 31
  - symbol: Li # 32
    coordinates: [  0.492451230378359,  0.188135325054989,  0.889872700976568 ]
    mass: 6.940000
    reduced_to: 31
  - symbol: Li # 33
    coordinates: [  0.825784563711692,  0.188135325054989,  0.889872700976568 ]
    mass: 6.940000
    reduced_to: 31
  - symbol: Li # 34
    coordinates: [  0.159117897045025,  0.688135325054989,  0.889872700976568 ]
    mass: 6.940000
    reduced_to: 31
  - symbol: Li # 35
    coordinates: [  0.492451230378359,  0.688135325054989,  0.889872700976568 ]
    mass: 6.940000
    reduced_to: 31
  - symbol: Li # 36
    coordinates: [  0.825784563711692,  0.688135325054989,  0.889872700976568 ]
    mass: 6.940000
    reduced_to: 31
  - symbol: Li # 37
    coordinates: [  0.044693084338877,  0.170098256708314,  0.202773656552406 ]
    mass: 6.940000
    reduced_to: 37
  - symbol: Li # 38
    coordinates: [  0.378026417672210,  0.170098256708314,  0.202773656552406 ]
    mass: 6.940000
    reduced_to: 37
  - symbol: Li # 39
    coordinates: [  0.711359751005544,  0.170098256708314,  0.202773656552406 ]
    mass: 6.940000
    reduced_to: 37
  - symbol: Li # 40
    coordinates: [  0.044693084338877,  0.670098256708314,  0.202773656552406 ]
    mass: 6.940000
    reduced_to: 37
  - symbol: Li # 41
    coordinates: [  0.378026417672210,  0.670098256708314,  0.202773656552406 ]
    mass: 6.940000
    reduced_to: 37
  - symbol: Li # 42
    coordinates: [  0.711359751005544,  0.670098256708314,  0.202773656552406 ]
    mass: 6.940000
    reduced_to: 37
  - symbol: Li # 43
    coordinates: [  0.008566219014591,  0.027328360420344,  0.986246802658082 ]
    mass: 6.940000
    reduced_to: 43
  - symbol: Li # 44
    coordinates: [  0.341899552347924,  0.027328360420344,  0.986246802658082 ]
    mass: 6.940000
    reduced_to: 43
  - symbol: Li # 45
    coordinates: [  0.675232885681257,  0.027328360420344,  0.986246802658082 ]
    mass: 6.940000
    reduced_to: 43
  - symbol: Li # 46
    coordinates: [  0.008566219014591,  0.527328360420344,  0.986246802658082 ]
    mass: 6.940000
    reduced_to: 43
  - symbol: Li # 47
    coordinates: [  0.341899552347924,  0.527328360420344,  0.986246802658082 ]
    mass: 6.940000
    reduced_to: 43
  - symbol: Li # 48
    coordinates: [  0.675232885681257,  0.527328360420344,  0.986246802658082 ]
    mass: 6.940000
    reduced_to: 43
  - symbol: Sn # 49
    coordinates: [  0.194759641177669,  0.090860153192219,  0.103269370752221 ]
    mass: 118.710000
    reduced_to: 49
  - symbol: Sn # 50
    coordinates: [  0.528092974511003,  0.090860153192219,  0.103269370752221 ]
    mass: 118.710000
    reduced_to: 49
  - symbol: Sn # 51
    coordinates: [  0.861426307844336,  0.090860153192219,  0.103269370752221 ]
    mass: 118.710000
    reduced_to: 49
  - symbol: Sn # 52
    coordinates: [  0.194759641177669,  0.590860153192219,  0.103269370752221 ]
    mass: 118.710000
    reduced_to: 49
  - symbol: Sn # 53
    coordinates: [  0.528092974511003,  0.590860153192219,  0.103269370752221 ]
    mass: 118.710000
    reduced_to: 49
  - symbol: Sn # 54
    coordinates: [  0.861426307844336,  0.590860153192219,  0.103269370752221 ]
    mass: 118.710000
    reduced_to: 49
  - symbol: Sn # 55
    coordinates: [  0.123677051580296,  0.291962048005257,  0.677174663492317 ]
    mass: 118.710000
    reduced_to: 55
  - symbol: Sn # 56
    coordinates: [  0.457010384913630,  0.291962048005257,  0.677174663492317 ]
    mass: 118.710000
    reduced_to: 55
  - symbol: Sn # 57
    coordinates: [  0.790343718246963,  0.291962048005257,  0.677174663492317 ]
    mass: 118.710000
    reduced_to: 55
  - symbol: Sn # 58
    coordinates: [  0.123677051580296,  0.791962048005257,  0.677174663492317 ]
    mass: 118.710000
    reduced_to: 55
  - symbol: Sn # 59
    coordinates: [  0.457010384913630,  0.791962048005257,  0.677174663492317 ]
    mass: 118.710000
    reduced_to: 55
  - symbol: Sn # 60
    coordinates: [  0.790343718246963,  0.791962048005257,  0.677174663492317 ]
    mass: 118.710000
    reduced_to: 55
  - symbol: Sn # 61
    coordinates: [  0.083866421755271,  0.106481830036181,  0.437943790133272 ]
    mass: 118.710000
    reduced_to: 61
  - symbol: Sn # 62
    coordinates: [  0.417199755088604,  0.106481830036181,  0.437943790133272 ]
    mass: 118.710000
    reduced_to: 61
  - symbol: Sn # 63
    coordinates: [  0.750533088421937,  0.106481830036181,  0.437943790133272 ]
    mass: 118.710000
    reduced_to: 61
  - symbol: Sn # 64
    coordinates: [  0.083866421755271,  0.606481830036181,  0.437943790133272 ]
    mass: 118.710000
    reduced_to: 61
  - symbol: Sn # 65
    coordinates: [  0.417199755088604,  0.606481830036181,  0.437943790133272 ]
    mass: 118.710000
    reduced_to: 61
  - symbol: Sn # 66
    coordinates: [  0.750533088421937,  0.606481830036181,  0.437943790133272 ]
    mass: 118.710000
    reduced_to: 61
  - symbol: Sn # 67
    coordinates: [  0.271751419559346,  0.465395945598749,  0.565416964182692 ]
    mass: 118.710000
    reduced_to: 67
  - symbol: Sn # 68
    coordinates: [  0.605084752892680,  0.465395945598749,  0.565416964182692 ]
    mass: 118.710000
    reduced_to: 67
  - symbol: Sn # 69
    coordinates: [  0.938418086226013,  0.465395945598749,  0.565416964182692 ]
    mass: 118.710000
    reduced_to: 67
  - symbol: Sn # 70
    coordinates: [  0.271751419559346,  0.965395945598749,  0.565416964182692 ]
    mass: 118.710000
    reduced_to: 67
  - symbol: Sn # 71
    coordinates: [  0.605084752892680,  0.965395945598749,  0.565416964182692 ]
    mass: 118.710000
    reduced_to: 67
  - symbol: Sn # 72
    coordinates: [  0.938418086226013,  0.965395945598749,  0.565416964182692 ]
    mass: 118.710000
    reduced_to: 67
  - symbol: Sn # 73
    coordinates: [  0.083853282515986,  0.356446413006987,  0.437849004403873 ]
    mass: 118.710000
    reduced_to: 73
  - symbol: Sn # 74
    coordinates: [  0.417186615849320,  0.356446413006987,  0.437849004403873 ]
    mass: 118.710000
    reduced_to: 73
  - symbol: Sn # 75
    coordinates: [  0.750519949182653,  0.356446413006987,  0.437849004403873 ]
    mass: 118.710000
    reduced_to: 73
  - symbol: Sn # 76
    coordinates: [  0.083853282515986,  0.856446413006987,  0.437849004403873 ]
    mass: 118.710000
    reduced_to: 73
  - symbol: Sn # 77
    coordinates: [  0.417186615849320,  0.856446413006987,  0.437849004403873 ]
    mass: 118.710000
    reduced_to: 73
  - symbol: Sn # 78
    coordinates: [  0.750519949182653,  0.856446413006987,  0.437849004403873 ]
    mass: 118.710000
    reduced_to: 73
  - symbol: Sn # 79
    coordinates: [  0.229331518451410,  0.248044786288842,  0.310637557933826 ]
    mass: 118.710000
    reduced_to: 79
  - symbol: Sn # 80
    coordinates: [  0.562664851784743,  0.248044786288842,  0.310637557933826 ]
    mass: 118.710000
    reduced_to: 79
  - symbol: Sn # 81
    coordinates: [  0.895998185118076,  0.248044786288842,  0.310637557933826 ]
    mass: 118.710000
    reduced_to: 79
  - symbol: Sn # 82
    coordinates: [  0.229331518451410,  0.748044786288842,  0.310637557933826 ]
    mass: 118.710000
    reduced_to: 79
  - symbol: Sn # 83
    coordinates: [  0.562664851784743,  0.748044786288842,  0.310637557933826 ]
    mass: 118.710000
    reduced_to: 79
  - symbol: Sn # 84
    coordinates: [  0.895998185118076,  0.748044786288842,  0.310637557933826 ]
    mass: 118.710000
    reduced_to: 79
  - symbol: Sn # 85
    coordinates: [  0.009086309111338,  0.273935235852377,  0.989555890046391 ]
    mass: 118.710000
    reduced_to: 85
  - symbol: Sn # 86
    coordinates: [  0.342419642444672,  0.273935235852377,  0.989555890046391 ]
    mass: 118.710000
    reduced_to: 85
  - symbol: Sn # 87
    coordinates: [  0.675752975778005,  0.273935235852377,  0.989555890046391 ]
    mass: 118.710000
    reduced_to: 85
  - symbol: Sn # 88
    coordinates: [  0.009086309111338,  0.773935235852377,  0.989555890046391 ]
    mass: 118.710000
    reduced_to: 85
  - symbol: Sn # 89
    coordinates: [  0.342419642444672,  0.773935235852377,  0.989555890046391 ]
    mass: 118.710000
    reduced_to: 85
  - symbol: Sn # 90
    coordinates: [  0.675752975778005,  0.773935235852377,  0.989555890046391 ]
    mass: 118.710000
    reduced_to: 85
  - symbol: Sn # 91
    coordinates: [  0.044016969641204,  0.422873294705734,  0.198860834127867 ]
    mass: 118.710000
    reduced_to: 91
  - symbol: Sn # 92
    coordinates: [  0.377350302974537,  0.422873294705734,  0.198860834127867 ]
    mass: 118.710000
    reduced_to: 91
  - symbol: Sn # 93
    coordinates: [  0.710683636307870,  0.422873294705734,  0.198860834127867 ]
    mass: 118.710000
    reduced_to: 91
  - symbol: Sn # 94
    coordinates: [  0.044016969641204,  0.922873294705734,  0.198860834127867 ]
    mass: 118.710000
    reduced_to: 91
  - symbol: Sn # 95
    coordinates: [  0.377350302974537,  0.922873294705734,  0.198860834127867 ]
    mass: 118.710000
    reduced_to: 91
  - symbol: Sn # 96
    coordinates: [  0.710683636307870,  0.922873294705734,  0.198860834127867 ]
    mass: 118.710000
    reduced_to: 91
  - symbol: Sn # 97
    coordinates: [  0.158582678496510,  0.441529542603143,  0.886526779999105 ]
    mass: 118.710000
    reduced_to: 97
  - symbol: Sn # 98
    coordinates: [  0.491916011829844,  0.441529542603143,  0.886526779999105 ]
    mass: 118.710000
    reduced_to: 97
  - symbol: Sn # 99
    coordinates: [  0.825249345163177,  0.441529542603143,  0.886526779999105 ]
    mass: 118.710000
    reduced_to: 97
  - symbol: Sn # 100
    coordinates: [  0.158582678496510,  0.941529542603143,  0.886526779999105 ]
    mass: 118.710000
    reduced_to: 97
  - symbol: Sn # 101
    coordinates: [  0.491916011829844,  0.941529542603143,  0.886526779999105 ]
    mass: 118.710000
    reduced_to: 97
  - symbol: Sn # 102
    coordinates: [  0.825249345163177,  0.941529542603143,  0.886526779999105 ]
    mass: 118.710000
    reduced_to: 97
  - symbol: Sn # 103
    coordinates: [  0.306286699936157,  0.124132337550189,  0.772849126987611 ]
    mass: 118.710000
    reduced_to: 103
  - symbol: Sn # 104
    coordinates: [  0.639620033269490,  0.124132337550189,  0.772849126987611 ]
    mass: 118.710000
    reduced_to: 103
  - symbol: Sn # 105
    coordinates: [  0.972953366602823,  0.124132337550189,  0.772849126987611 ]
    mass: 118.710000
    reduced_to: 103
  - symbol: Sn # 106
    coordinates: [  0.306286699936157,  0.624132337550189,  0.772849126987611 ]
    mass: 118.710000
    reduced_to: 103
  - symbol: Sn # 107
    coordinates: [  0.639620033269490,  0.624132337550189,  0.772849126987611 ]
    mass: 118.710000
    reduced_to: 103
  - symbol: Sn # 108
    coordinates: [  0.972953366602823,  0.624132337550189,  0.772849126987611 ]
    mass: 118.710000
    reduced_to: 103

displacements:
- atom:    1
  displacement:
    [   0.0100000000000000,  0.0000000000000000,  0.0000000000000000 ]
  forces:
  - [  -0.0219680517911911, -0.0056047923862934, -0.0060054697096348 ]
  - [   0.0005532728973776, -0.0055403485894203, -0.0060449615120888 ]
  - [   0.0005593387759291, -0.0056902952492237, -0.0060188351199031 ]
  - [   0.0001240966375917, -0.0056147347204387, -0.0060323020443320 ]
  - [   0.0000892575480975, -0.0056011849083006, -0.0060337875038385 ]
  - [   0.0000902498140931, -0.0056294924579561, -0.0060300752520561 ]
  - [  -0.0007487200200558, -0.0111112445592880, -0.0210860949009657 ]
  - [  -0.0010928250849247, -0.0114506818354130, -0.0216655544936657 ]
  - [  -0.0010911421850324, -0.0107723008841276, -0.0205055493861437 ]
  - [  -0.0003169961273670, -0.0111129879951477, -0.0210836473852396 ]
  - [  -0.0003573792055249, -0.0110975354909897, -0.0211047492921352 ]
  - [  -0.0003578066825867, -0.0111277597025037, -0.0210667625069618 ]
  - [   0.0000247545103775,  0.0144689781591296,  0.0205062739551067 ]
  - [  -0.0000029739676393,  0.0144688710570335,  0.0204890631139278 ]
  - [   0.0000061743376136,  0.0144677646458149,  0.0205195285379887 ]
  - [   0.0000139580843097,  0.0144686661660671,  0.0205042399466038 ]
  - [   0.0000183871052286,  0.0144662149250507,  0.0205051004886627 ]
  - [   0.0000174972155946,  0.0144660761579871,  0.0205035507678986 ]
  - [   0.0005196554120630,  0.0042542139999568,  0.0054805083200336 ]
  - [   0.0001081463778974,  0.0044604060240090,  0.0055005205795169 ]
  - [   0.0005208619986661,  0.0046622520312667,  0.0055316430516541 ]
  - [   0.0001333715335932,  0.0044533694162965,  0.0055081965401769 ]
  - [   0.0001265733153559,  0.0044592260383070,  0.0055004395544529 ]
  - [   0.0001343559124507,  0.0044641890563071,  0.0054891272448003 ]
  - [   0.0003151008859277,  0.0370653606951237, -0.0225183591246605 ]
  - [   0.0003135434817523,  0.0370747148990631, -0.0225453097373247 ]
  - [   0.0003174077719450,  0.0370650142431259, -0.0225346069782972 ]
  - [   0.0003111530095339,  0.0370696522295475, -0.0225340016186237 ]
  - [   0.0003089827951044,  0.0370604470372200, -0.0225217174738646 ]
  - [   0.0002971780486405,  0.0370740778744221, -0.0225468222051859 ]
  - [  -0.0000733657507226,  0.0315431207418442, -0.0055835787206888 ]
  - [  -0.0007433093851432,  0.0321115963160992, -0.0050130896270275 ]
  - [  -0.0007459854241461,  0.0309748798608780, -0.0061693433672190 ]
  - [   0.0003637287300080,  0.0315449014306068, -0.0055891349911690 ]
  - [   0.0003005525795743,  0.0314989909529686, -0.0055679902434349 ]
  - [   0.0003013747045770,  0.0315880849957466, -0.0056074894964695 ]
  - [  -0.0000996026501525, -0.0395192615687847,  0.0231176819652319 ]
  - [  -0.0000966110819718, -0.0408814437687397,  0.0240751262754202 ]
  - [  -0.0003708839067258, -0.0402020215988159,  0.0235978253185749 ]
  - [  -0.0000472037354484, -0.0400803908705711,  0.0234635546803474 ]
  - [  -0.0000458594586235, -0.0403276160359383,  0.0237299334257841 ]
  - [  -0.0003213795716874, -0.0402022376656532,  0.0235959682613611 ]
  - [   0.0000351736089215, -0.0324018262326717,  0.0064567513763905 ]
  - [   0.0000349495821865, -0.0323198139667511,  0.0061818286776543 ]
  - [  -0.0001875338784885, -0.0323667116463184,  0.0063194297254086 ]
  - [   0.0000023228494683, -0.0328876189887524,  0.0066634081304073 ]
  - [   0.0000047904104576, -0.0318425670266151,  0.0059761144220829 ]
  - [  -0.0001702302979538, -0.0323656760156155,  0.0063195973634720 ]
  - [  -0.0002728607796598, -0.0025660162791610, -0.0158510953187943 ]
  - [  -0.0002607544302009, -0.0025784005410969, -0.0157603994011879 ]
  - [  -0.0002604497130960, -0.0025754952803254, -0.0159429442137480 ]
  - [  -0.0007409792160615, -0.0025985031388700, -0.0158500783145428 ]
  - [  -0.0004709974455182, -0.0027508672792464, -0.0158540792763233 ]
  - [  -0.0004673596413340, -0.0024081456940621, -0.0158425159752369 ]
  - [   0.0003044602926821,  0.0432596988976002, -0.0070381015539169 ]
  - [   0.0002721430500969,  0.0432781912386417, -0.0071089603006840 ]
  - [   0.0002746864920482,  0.0432654768228531, -0.0069786831736565 ]
  - [   0.0002870413009077,  0.0432739779353142, -0.0070412084460258 ]
  - [   0.0002789447316900,  0.0432584099471569, -0.0070415697991848 ]
  - [   0.0002811637241393,  0.0432731956243515, -0.0070419125258923 ]
  - [  -0.0001603970158612,  0.0003607245162129, -0.0003787213936448 ]
  - [  -0.0001605740544619,  0.0004505310207605, -0.0004034501034766 ]
  - [  -0.0000560140251764,  0.0004079607315361, -0.0003908872604370 ]
  - [  -0.0001132860343205,  0.0003935573622584, -0.0004224355798215 ]
  - [  -0.0001127417563112,  0.0004215142689645, -0.0003603936638683 ]
  - [  -0.0000587468894082,  0.0004068273119628, -0.0003900844603777 ]
  - [  -0.0000259464341070, -0.0129006095230579, -0.0004685148596764 ]
  - [  -0.0000365962550859, -0.0128962174057961, -0.0004463121294975 ]
  - [  -0.0000345752778230, -0.0128789059817791, -0.0005152150988579 ]
  - [  -0.0000165954697877, -0.0128802247345448, -0.0004639774560928 ]
  - [  -0.0000401204306399, -0.0128847062587738, -0.0004830136895180 ]
  - [  -0.0000439444083895, -0.0129137150943279, -0.0004810690879822 ]
  - [  -0.0000865575129865,  0.0026714606210589,  0.0015208199620247 ]
  - [  -0.0000850984142744,  0.0027264335658401,  0.0012910505756736 ]
  - [  -0.0000218899731408,  0.0026980200782418,  0.0014011072926223 ]
  - [  -0.0000968576787272,  0.0026648500934243,  0.0014261938631535 ]
  - [  -0.0000949516252149,  0.0027295062318444,  0.0013819597661495 ]
  - [  -0.0000990073967841,  0.0026976354420185,  0.0014055892825127 ]
  - [  -0.0002811879385263,  0.0160608962178230, -0.0008070617914200 ]
  - [  -0.0003979331813753,  0.0160682760179043, -0.0008945614099503 ]
  - [  -0.0003993643913418,  0.0160442255437374, -0.0006812512874603 ]
  - [  -0.0002434363123029,  0.0160562172532082, -0.0007881671190262 ]
  - [  -0.0002591032534838,  0.0161055438220501, -0.0007755756378174 ]
  - [  -0.0002580946311355,  0.0160070471465588, -0.0007968246936798 ]
  - [   0.0067907674238086, -0.0198616329580545,  0.0301152616739273 ]
  - [   0.0069528222084045, -0.0262742191553116,  0.0213801115751266 ]
  - [   0.0001683218288235, -0.0230229441076517,  0.0258163437247276 ]
  - [   0.0000337497840519, -0.0229680594056845,  0.0257966890931129 ]
  - [   0.0000341059967468, -0.0230784639716148,  0.0258409604430199 ]
  - [   0.0001414287544321, -0.0230247545987368,  0.0258176587522030 ]
  - [   0.0062071159482002, -0.0484242402017117,  0.0018466226756573 ]
  - [   0.0063391798175871, -0.0416566282510757,  0.0099448449909687 ]
  - [  -0.0000099723692983, -0.0450871586799622,  0.0058459602296352 ]
  - [  -0.0001092781312764, -0.0450978986918926,  0.0058652162551880 ]
  - [  -0.0001086638076231, -0.0450805127620697,  0.0058259852230549 ]
  - [  -0.0001072871964425, -0.0450864881277084,  0.0058455727994442 ]
  - [  -0.0006060902960598,  0.0216741245239973, -0.0246428027749062 ]
  - [  -0.0000322322594002,  0.0216183513402939, -0.0245685018599033 ]
  - [  -0.0000290898606181,  0.0217358954250813, -0.0247608255594969 ]
  - [   0.0002068381290883,  0.0216794237494469, -0.0246662348508835 ]
  - [   0.0001401219342370,  0.0216412786394358, -0.0246604718267918 ]
  - [   0.0001388785021845,  0.0217173993587494, -0.0246689319610596 ]
  - [   0.0000942539409152,  0.0011481205001473,  0.0153369782492518 ]
  - [   0.0002116099058185,  0.0012300894595683,  0.0154639724642038 ]
  - [   0.0000914727279451,  0.0013060853816569,  0.0155848860740662 ]
  - [   0.0000669697037665,  0.0011563231237233,  0.0155462687835097 ]
  - [   0.0001638179237489,  0.0012272917665541,  0.0154632451012731 ]
  - [   0.0000707615326974,  0.0012996545992792,  0.0153773631900549 ]
- atom:    1
  displacement:
    [  -0.0100000000000000,  0.0000000000000000,  0.0000000000000000 ]
  forces:
  - [   0.0221856757998466, -0.0056275753304362, -0.0060303872451186 ]
  - [  -0.0003437738632783, -0.0056913942098618, -0.0060194162651896 ]
  - [  -0.0003377156681381, -0.0055398745462298, -0.0060448013246059 ]
  - [   0.0000929706875468, -0.0056145717389882, -0.0060322666540742 ]
  - [   0.0001253717200598, -0.0056291907094419, -0.0060300896875560 ]
  - [   0.0001262436853722, -0.0056014140136540, -0.0060336934402585 ]
  - [   0.0001276042312384, -0.0111121777445078, -0.0210859049111605 ]
  - [   0.0004690950736403, -0.0107728876173496, -0.0205067396163940 ]
  - [   0.0004730345681310, -0.0114513114094734, -0.0216672345995903 ]
  - [  -0.0003028009086847, -0.0111134937033057, -0.0210843607783318 ]
  - [  -0.0002636071294546, -0.0111265517771244, -0.0210659485310316 ]
  - [  -0.0002630082890391, -0.0110981967300177, -0.0211047735065222 ]