phonopy:
  version: "2.37.1"
  frequency_unit_conversion_factor: 15.633302
  symmetry_tolerance: 1.00000e-05

space_group:
  type: "P1"
  number: 1
  Hall_symbol: "P 1"

primitive_matrix:
- [  1.000000000000000, -1.000000000000000, -0.000000000000000 ]
- [  0.000000000000000,  1.000000000000000, -1.000000000000000 ]
- [  0.000000000000000,  0.000000000000000,  1.000000000000000 ]

supercell_matrix:
- [   3,   0,   0 ]
- [   0,   3,   0 ]
- [   0,   0,   1 ]

primitive_cell:
  lattice:
  - [     4.695022105290072,     0.000000000000000,     0.000000000000000 ] # a
  - [    -2.346509919118042,     4.068024791576576,     0.000000000000000 ] # b
  - [    -0.004308437580400,    -2.705514225948059,    12.102662721307000 ] # c
  points:
  - symbol: Li # 1
    coordinates: [  0.950551539542825,  0.609390134150547,  0.144909718919731 ]
    mass: 6.940000
  - symbol: Li # 2
    coordinates: [  0.030009116401013,  0.768428296850676,  0.383357374746770 ]
    mass: 6.940000
  - symbol: Li # 3
    coordinates: [  0.562510098439286,  0.832860982134357,  0.979824720891962 ]
    mass: 6.940000
  - symbol: Li # 4
    coordinates: [  0.803989261477420,  0.314994245109868,  0.702149888562673 ]
    mass: 6.940000
  - symbol: Li # 5
    coordinates: [  0.257540044638388,  0.223121475955236,  0.065321707396850 ]
    mass: 6.940000
  - symbol: Li # 6
    coordinates: [  0.723741869677893,  0.155694665048643,  0.463908492840518 ]
    mass: 6.940000
  - symbol: Ga # 7
    coordinates: [  0.339230161534416,  0.386922718686575,  0.311162216334708 ]
    mass: 69.723000
  - symbol: Ga # 8
    coordinates: [  0.109979938182452,  0.927661437405775,  0.621493765194841 ]
    mass: 69.723000
  - symbol: Ga # 9
    coordinates: [  0.181474864548083,  0.070475277267445,  0.836224093762638 ]
    mass: 69.723000
  - symbol: Sn # 10
    coordinates: [  0.643722326063471,  0.996356658081106,  0.225696323614997 ]
    mass: 118.710000
  - symbol: Sn # 11
    coordinates: [  0.876498757078303,  0.460591542650374,  0.921330890833482 ]
    mass: 118.710000
  - symbol: Sn # 12
    coordinates: [  0.419184488807306,  0.546357105733580,  0.549675306321331 ]
    mass: 118.710000
  reciprocal_lattice: # without 2pi
  - [     0.212991542440931,     0.122857355260168,     0.027540219112089 ] # a*
  - [     0.000000000000000,     0.245819544185336,     0.054952227383700 ] # b*
  - [     0.000000000000000,     0.000000000000000,     0.082626445355655 ] # c*

unit_cell:
  lattice:
  - [     4.695022105290072,     0.000000000000000,     0.000000000000000 ] # a
  - [     2.348512186172029,     4.068024791576576,     0.000000000000000 ] # b
  - [     2.344203748591630,     1.362510565628517,    12.102662721307000 ] # c
  points:
  - symbol: Li # 1
    coordinates: [  0.341161405392277,  0.464480415230816,  0.144909718919731 ]
    mass: 6.940000
    reduced_to: 1
  - symbol: Li # 2
    coordinates: [  0.261580819550337,  0.385070922103906,  0.383357374746770 ]
    mass: 6.940000
    reduced_to: 2
  - symbol: Li # 3
    coordinates: [  0.729649116304929,  0.853036261242395,  0.979824720891962 ]
    mass: 6.940000
    reduced_to: 3
  - symbol: Li # 4
    coordinates: [  0.488995016367552,  0.612844356547196,  0.702149888562673 ]
    mass: 6.940000
    reduced_to: 4
  - symbol: Li # 5
    coordinates: [  0.034418568683151,  0.157799768558387,  0.065321707396850 ]
    mass: 6.940000
    reduced_to: 5
  - symbol: Li # 6
    coordinates: [  0.568047204629250,  0.691786172208126,  0.463908492840518 ]
    mass: 6.940000
    reduced_to: 6
  - symbol: Ga # 7
    coordinates: [  0.952307442847840,  0.075760502351868,  0.311162216334708 ]
    mass: 69.723000
    reduced_to: 7
  - symbol: Ga # 8
    coordinates: [  0.182318500776677,  0.306167672210933,  0.621493765194841 ]
    mass: 69.723000
    reduced_to: 8
  - symbol: Ga # 9
    coordinates: [  0.110999587280638,  0.234251183504806,  0.836224093762638 ]
    mass: 69.723000
    reduced_to: 9
  - symbol: Sn # 10
    coordinates: [  0.647365667982365,  0.770660334466109,  0.225696323614997 ]
    mass: 118.710000
    reduced_to: 10
  - symbol: Sn # 11
    coordinates: [  0.415907214427929,  0.539260651816892,  0.921330890833482 ]
    mass: 118.710000
    reduced_to: 11
  - symbol: Sn # 12
    coordinates: [  0.872827383073726,  0.996681799412249,  0.549675306321331 ]
    mass: 118.710000
    reduced_to: 12

supercell:
  lattice:
  - [    14.085066315870215,     0.000000000000000,     0.000000000000000 ] # a
  - [     7.045536558516088,    12.204074374729728,     0.000000000000000 ] # b
  - [     2.344203748591630,     1.362510565628517,    12.102662721307000 ] # c
  points:
  - symbol: Li # 1
    coordinates: [  0.113720468464092,  0.154826805076939,  0.144909718919731 ]
    mass: 6.940000
    reduced_to: 1
  - symbol: Li # 2
    coordinates: [  0.447053801797426,  0.154826805076939,  0.144909718919731 ]
    mass: 6.940000
    reduced_to: 1
  - symbol: Li # 3
    coordinates: [  0.780387135130759,  0.154826805076939,  0.144909718919731 ]
    mass: 6.940000
    reduced_to: 1
  - symbol: Li # 4
    coordinates: [  0.113720468464092,  0.488160138410272,  0.144909718919731 ]
    mass: 6.940000
    reduced_to: 1
  - symbol: Li # 5
    coordinates: [  0.447053801797426,  0.488160138410272,  0.144909718919731 ]
    mass: 6.940000
    reduced_to: 1
  - symbol: Li # 6
    coordinates: [  0.780387135130759,  0.488160138410272,  0.144909718919731 ]
    mass: 6.940000
    reduced_to: 1
  - symbol: Li # 7
    coordinates: [  0.113720468464092,  0.821493471743605,  0.144909718919731 ]
    mass: 6.940000
    reduced_to: 1
  - symbol: Li # 8
    coordinates: [  0.447053801797426,  0.821493471743605,  0.144909718919731 ]
    mass: 6.940000
    reduced_to: 1
  - symbol: Li # 9
    coordinates: [  0.780387135130759,  0.821493471743605,  0.144909718919731 ]
    mass: 6.940000
    reduced_to: 1
  - symbol: Li # 10
    coordinates: [  0.087193606516779,  0.128356974034635,  0.383357374746770 ]
    mass: 6.940000
    reduced_to: 10
  - symbol: Li # 11
    coordinates: [  0.420526939850112,  0.128356974034635,  0.383357374746770 ]
    mass: 6.940000
    reduced_to: 10
  - symbol: Li # 12
    coordinates: [  0.753860273183446,  0.128356974034635,  0.383357374746770 ]
    mass: 6.940000
    reduced_to: 10
  - symbol: Li # 13
    coordinates: [  0.087193606516779,  0.461690307367969,  0.383357374746770 ]
    mass: 6.940000
    reduced_to: 10
  - symbol: Li # 14
    coordinates: [  0.420526939850112,  0.461690307367969,  0.383357374746770 ]
    mass: 6.940000
    reduced_to: 10
  - symbol: Li # 15
    coordinates: [  0.753860273183446,  0.461690307367969,  0.383357374746770 ]
    mass: 6.940000
    reduced_to: 10
  - symbol: Li # 16
    coordinates: [  0.087193606516779,  0.795023640701302,  0.383357374746770 ]
    mass: 6.940000
    reduced_to: 10
  - symbol: Li # 17
    coordinates: [  0.420526939850112,  0.795023640701302,  0.383357374746770 ]
    mass: 6.940000
    reduced_to: 10
  - symbol: Li # 18
    coordinates: [  0.753860273183446,  0.795023640701302,  0.383357374746770 ]
    mass: 6.940000
    reduced_to: 10
  - symbol: Li # 19
    coordinates: [  0.243216372101643,  0.284345420414132,  0.979824720891962 ]
    mass: 6.940000
    reduced_to: 19
  - symbol: Li # 20
    coordinates: [  0.576549705434976,  0.284345420414132,  0.979824720891962 ]
    mass: 6.940000
    reduced_to: 19
  - symbol: Li # 21
    coordinates: [  0.909883038768309,  0.284345420414132,  0.979824720891962 ]
    mass: 6.940000
    reduced_to: 19
  - symbol: Li # 22
    coordinates: [  0.243216372101643,  0.617678753747465,  0.979824720891962 ]
    mass: 6.940000
    reduced_to: 19
  - symbol: Li # 23
    coordinates: [  0.576549705434976,  0.617678753747465,  0.979824720891962 ]
    mass: 6.940000
    reduced_to: 19
  - symbol: Li # 24
    coordinates: [  0.909883038768309,  0.617678753747465,  0.979824720891962 ]
    mass: 6.940000
    reduced_to: 19
  - symbol: Li # 25
    coordinates: [  0.243216372101643,  0.951012087080798,  0.979824720891962 ]
    mass: 6.940000
    reduced_to: 19
  - symbol: Li # 26
    coordinates: [  0.576549705434976,  0.951012087080798,  0.979824720891962 ]
    mass: 6.940000
    reduced_to: 19
  - symbol: Li # 27
    coordinates: [  0.909883038768309,  0.951012087080798,  0.979824720891962 ]
    mass: 6.940000
    reduced_to: 19
  - symbol: Li # 28
    coordinates: [  0.162998338789184,  0.204281452182399,  0.702149888562673 ]
    mass: 6.940000
    reduced_to: 28
  - symbol: Li # 29
    coordinates: [  0.496331672122517,  0.204281452182399,  0.702149888562673 ]
    mass: 6.940000
    reduced_to: 28
  - symbol: Li # 30
    coordinates: [  0.829665005455851,  0.204281452182399,  0.702149888562673 ]
    mass: 6.940000
    reduced_to: 28
  - symbol: Li # 31
    coordinates: [  0.162998338789184,  0.537614785515732,  0.702149888562673 ]
    mass: 6.940000
    reduced_to: 28
  - symbol: Li # 32
    coordinates: [  0.496331672122517,  0.537614785515732,  0.702149888562673 ]
    mass: 6.940000
    reduced_to: 28
  - symbol: Li # 33
    coordinates: [  0.829665005455851,  0.537614785515732,  0.702149888562673 ]
    mass: 6.940000
    reduced_to: 28
  - symbol: Li # 34
    coordinates: [  0.162998338789184,  0.870948118849065,  0.702149888562673 ]
    mass: 6.940000
    reduced_to: 28
  - symbol: Li # 35
    coordinates: [  0.496331672122517,  0.870948118849065,  0.702149888562673 ]
    mass: 6.940000
    reduced_to: 28
  - symbol: Li # 36
    coordinates: [  0.829665005455851,  0.870948118849065,  0.702149888562673 ]
    mass: 6.940000
    reduced_to: 28
  - symbol: Li # 37
    coordinates: [  0.011472856227717,  0.052599922852796,  0.065321707396850 ]
    mass: 6.940000
    reduced_to: 37
  - symbol: Li # 38
    coordinates: [  0.344806189561050,  0.052599922852796,  0.065321707396850 ]
    mass: 6.940000
    reduced_to: 37
  - symbol: Li # 39
    coordinates: [  0.678139522894384,  0.052599922852796,  0.065321707396850 ]
    mass: 6.940000
    reduced_to: 37
  - symbol: Li # 40
    coordinates: [  0.011472856227717,  0.385933256186129,  0.065321707396850 ]
    mass: 6.940000
    reduced_to: 37
  - symbol: Li # 41
    coordinates: [  0.344806189561050,  0.385933256186129,  0.065321707396850 ]
    mass: 6.940000
    reduced_to: 37
  - symbol: Li # 42
    coordinates: [  0.678139522894384,  0.385933256186129,  0.065321707396850 ]
    mass: 6.940000
    reduced_to: 37
  - symbol: Li # 43
    coordinates: [  0.011472856227717,  0.719266589519462,  0.065321707396850 ]
    mass: 6.940000
    reduced_to: 37
  - symbol: Li # 44
    coordinates: [  0.344806189561050,  0.719266589519462,  0.065321707396850 ]
    mass: 6.940000
    reduced_to: 37
  - symbol: Li # 45
    coordinates: [  0.678139522894384,  0.719266589519462,  0.065321707396850 ]
    mass: 6.940000
    reduced_to: 37
  - symbol: Li # 46
    coordinates: [  0.189349068209750,  0.230595390736042,  0.463908492840518 ]
    mass: 6.940000
    reduced_to: 46
  - symbol: Li # 47
    coordinates: [  0.522682401543083,  0.230595390736042,  0.463908492840518 ]
    mass: 6.940000
    reduced_to: 46
  - symbol: Li # 48
    coordinates: [  0.856015734876416,  0.230595390736042,  0.463908492840518 ]
    mass: 6.940000
    reduced_to: 46
  - symbol: Li # 49
    coordinates: [  0.189349068209750,  0.563928724069375,  0.463908492840518 ]
    mass: 6.940000
    reduced_to: 46
  - symbol: Li # 50
    coordinates: [  0.522682401543083,  0.563928724069375,  0.463908492840518 ]
    mass: 6.940000
    reduced_to: 46
  - symbol: Li # 51
    coordinates: [  0.856015734876416,  0.563928724069375,  0.463908492840518 ]
    mass: 6.940000
    reduced_to: 46
  - symbol: Li # 52
    coordinates: [  0.189349068209750,  0.897262057402708,  0.463908492840518 ]
    mass: 6.940000
    reduced_to: 46
  - symbol: Li # 53
    coordinates: [  0.522682401543083,  0.897262057402708,  0.463908492840518 ]
    mass: 6.940000
    reduced_to: 46
  - symbol: Li # 54
    coordinates: [  0.856015734876416,  0.897262057402708,  0.463908492840518 ]
    mass: 6.940000
    reduced_to: 46
  - symbol: Ga # 55
    coordinates: [  0.317435814282613,  0.025253500783956,  0.311162216334708 ]
    mass: 69.723000
    reduced_to: 55
  - symbol: Ga # 56
    coordinates: [  0.650769147615947,  0.025253500783956,  0.311162216334708 ]
    mass: 69.723000
    reduced_to: 55
  - symbol: Ga # 57
    coordinates: [  0.984102480949280,  0.025253500783956,  0.311162216334708 ]
    mass: 69.723000
    reduced_to: 55
  - symbol: Ga # 58
    coordinates: [  0.317435814282613,  0.358586834117289,  0.311162216334708 ]
    mass: 69.723000
    reduced_to: 55
  - symbol: Ga # 59
    coordinates: [  0.650769147615947,  0.358586834117289,  0.311162216334708 ]
    mass: 69.723000
    reduced_to: 55
  - symbol: Ga # 60
    coordinates: [  0.984102480949280,  0.358586834117289,  0.311162216334708 ]
    mass: 69.723000
    reduced_to: 55
  - symbol: Ga # 61
    coordinates: [  0.317435814282613,  0.691920167450623,  0.311162216334708 ]
    mass: 69.723000
    reduced_to: 55
  - symbol: Ga # 62
    coordinates: [  0.650769147615947,  0.691920167450623,  0.311162216334708 ]
    mass: 69.723000
    reduced_to: 55
  - symbol: Ga # 63
    coordinates: [  0.984102480949280,  0.691920167450623,  0.311162216334708 ]
    mass: 69.723000
    reduced_to: 55
  - symbol: Ga # 64
    coordinates: [  0.060772833592226,  0.102055890736978,  0.621493765194841 ]
    mass: 69.723000
    reduced_to: 64
  - symbol: Ga # 65
    coordinates: [  0.394106166925559,  0.102055890736978,  0.621493765194841 ]
    mass: 69.723000
    reduced_to: 64
  - symbol: Ga # 66
    coordinates: [  0.727439500258892,  0.102055890736978,  0.621493765194841 ]
    mass: 69.723000
    reduced_to: 64
  - symbol: Ga # 67
    coordinates: [  0.060772833592226,  0.435389224070311,  0.621493765194841 ]
    mass: 69.723000
    reduced_to: 64
  - symbol: Ga # 68
    coordinates: [  0.394106166925559,  0.435389224070311,  0.621493765194841 ]
    mass: 69.723000
    reduced_to: 64
  - symbol: Ga # 69
    coordinates: [  0.727439500258892,  0.435389224070311,  0.621493765194841 ]
    mass: 69.723000
    reduced_to: 64
  - symbol: Ga # 70
    coordinates: [  0.060772833592226,  0.768722557403644,  0.621493765194841 ]
    mass: 69.723000
    reduced_to: 64
  - symbol: Ga # 71
    coordinates: [  0.394106166925559,  0.768722557403644,  0.621493765194841 ]
    mass: 69.723000
    reduced_to: 64
  - symbol: Ga # 72
    coordinates: [  0.727439500258892,  0.768722557403644,  0.621493765194841 ]
    mass: 69.723000
    reduced_to: 64
  - symbol: Ga # 73
    coordinates: [  0.036999862426879,  0.078083727834935,  0.836224093762638 ]
    mass: 69.723000
    reduced_to: 73
  - symbol: Ga # 74
    coordinates: [  0.370333195760213,  0.078083727834935,  0.836224093762638 ]
    mass: 69.723000
    reduced_to: 73
  - symbol: Ga # 75
    coordinates: [  0.703666529093546,  0.078083727834935,  0.836224093762638 ]
    mass: 69.723000
    reduced_to: 73
  - symbol: Ga # 76
    coordinates: [  0.036999862426879,  0.411417061168269,  0.836224093762638 ]
    mass: 69.723000
    reduced_to: 73
  - symbol: Ga # 77
    coordinates: [  0.370333195760213,  0.411417061168269,  0.836224093762638 ]
    mass: 69.723000
    reduced_to: 73
  - symbol: Ga # 78
    coordinates: [  0.703666529093546,  0.411417061168269,  0.836224093762638 ]
    mass: 69.723000
    reduced_to: 73
  - symbol: Ga # 79
    coordinates: [  0.036999862426879,  0.744750394501602,  0.836224093762638 ]
    mass: 69.723000
    reduced_to: 73
  - symbol: Ga # 80
    coordinates: [  0.370333195760213,  0.744750394501602,  0.836224093762638 ]
    mass: 69.723000
    reduced_to: 73
  - symbol: Ga # 81
    coordinates: [  0.703666529093546,  0.744750394501602,  0.836224093762638 ]
    mass: 69.723000
    reduced_to: 73
  - symbol: Sn # 82
    coordinates: [  0.215788555994122,  0.256886778155370,  0.225696323614997 ]
    mass: 118.710000
    reduced_to: 82
  - symbol: Sn # 83
    coordinates: [  0.549121889327455,  0.256886778155370,  0.225696323614997 ]
    mass: 118.710000
    reduced_to: 82
  - symbol: Sn # 84
    coordinates: [  0.882455222660788,  0.256886778155370,  0.225696323614997 ]
    mass: 118.710000
    reduced_to: 82
  - symbol: Sn # 85
    coordinates: [  0.215788555994122,  0.590220111488703,  0.225696323614997 ]
    mass: 118.710000
    reduced_to: 82
  - symbol: Sn # 86
    coordinates: [  0.549121889327455,  0.590220111488703,  0.225696323614997 ]
    mass: 118.710000
    reduced_to: 82
  - symbol: Sn # 87
    coordinates: [  0.882455222660788,  0.590220111488703,  0.225696323614997 ]
    mass: 118.710000
    reduced_to: 82
  - symbol: Sn # 88
    coordinates: [  0.215788555994122,  0.923553444822036,  0.225696323614997 ]
    mass: 118.710000
    reduced_to: 82
  - symbol: Sn # 89
    coordinates: [  0.549121889327455,  0.923553444822036,  0.225696323614997 ]
    mass: 118.710000
    reduced_to: 82
  - symbol: Sn # 90
    coordinates: [  0.882455222660788,  0.923553444822036,  0.225696323614997 ]
    mass: 118.710000
    reduced_to: 82
  - symbol: Sn # 91
    coordinates: [  0.138635738142643,  0.179753550605631,  0.921330890833482 ]
    mass: 118.710000
    reduced_to: 91
  - symbol: Sn # 92
    coordinates: [  0.471969071475976,  0.179753550605631,  0.921330890833482 ]
    mass: 118.710000
    reduced_to: 91
  - symbol: Sn # 93
    coordinates: [  0.805302404809310,  0.179753550605631,  0.921330890833482 ]
    mass: 118.710000
    reduced_to: 91
  - symbol: Sn # 94
    coordinates: [  0.138635738142643,  0.513086883938964,  0.921330890833482 ]
    mass: 118.710000
    reduced_to: 91
  - symbol: Sn # 95
    coordinates: [  0.471969071475976,  0.513086883938964,  0.921330890833482 ]
    mass: 118.710000
    reduced_to: 91
  - symbol: Sn # 96
    coordinates: [  0.805302404809310,  0.513086883938964,  0.921330890833482 ]
    mass: 118.710000
    reduced_to: 91
  - symbol: Sn # 97
    coordinates: [  0.138635738142643,  0.846420217272297,  0.921330890833482 ]
    mass: 118.710000
    reduced_to: 91
  - symbol: Sn # 98
    coordinates: [  0.471969071475976,  0.846420217272297,  0.921330890833482 ]
    mass: 118.710000
    reduced_to: 91
  - symbol: Sn # 99
    coordinates: [  0.805302404809310,  0.846420217272297,  0.921330890833482 ]
    mass: 118.710000
    reduced_to: 91
  - symbol: Sn # 100
    coordinates: [  0.290942461024575,  0.332227266470750,  0.549675306321331 ]
    mass: 118.710000
    reduced_to: 100
  - symbol: Sn # 101
    coordinates: [  0.624275794357909,  0.332227266470750,  0.549675306321331 ]
    mass: 118.710000
    reduced_to: 100
  - symbol: Sn # 102
    coordinates: [  0.957609127691242,  0.332227266470750,  0.549675306321331 ]
    mass: 118.710000
    reduced_to: 100
  - symbol: Sn # 103
    coordinates: [  0.290942461024575,  0.665560599804083,  0.549675306321331 ]
    mass: 118.710000
    reduced_to: 100
  - symbol: Sn # 104
    coordinates: [  0.624275794357909,  0.665560599804083,  0.549675306321331 ]
    mass: 118.710000
    reduced_to: 100
  - symbol: Sn # 105
    coordinates: [  0.957609127691242,  0.665560599804083,  0.549675306321331 ]
    mass: 118.710000
    reduced_to: 100
  - symbol: Sn # 106
    coordinates: [  0.290942461024575,  0.998893933137416,  0.549675306321331 ]
    mass: 118.710000
    reduced_to: 100
  - symbol: Sn # 107
    coordinates: [  0.624275794357909,  0.998893933137416,  0.549675306321331 ]
    mass: 118.710000
    reduced_to: 100
  - symbol: Sn # 108
    coordinates: [  0.957609127691242,  0.998893933137416,  0.549675306321331 ]
    mass: 118.710000
    reduced_to: 100

displacements:
- atom:    1
  displacement:
    [   0.0100000000000000,  0.0000000000000000,  0.0000000000000000 ]
  forces:
  - [  -0.0176277793943882, -0.0009434393141419,  0.0840398222208023 ]
  - [  -0.0008227475336753, -0.0010771461529657,  0.0840677917003632 ]
  - [  -0.0008263840572909, -0.0005819750949740,  0.0841591432690620 ]
  - [  -0.0009024578030221, -0.0005350071005523,  0.0840359404683113 ]
  - [  -0.0010293999221176, -0.0008268080418929,  0.0841147750616074 ]
  - [  -0.0009051671368070, -0.0011160438880324,  0.0841930359601974 ]
  - [  -0.0009030704386532, -0.0010237930109724,  0.0840816199779510 ]
  - [  -0.0009057915303856, -0.0006226060795598,  0.0841498076915741 ]
  - [  -0.0010317438282073, -0.0008267284138128,  0.0841152518987656 ]
  - [  -0.0000471977982670,  0.0005847462452948, -0.0038986601866782 ]
  - [   0.0002576089464128,  0.0004659416154027, -0.0038934061303735 ]
  - [   0.0002599393483251,  0.0007056305184960, -0.0038772607222199 ]
  - [   0.0001952765014721,  0.0006289926823229, -0.0038311206735671 ]
  - [   0.0004878037434537,  0.0005858473014086, -0.0038844635710120 ]
  - [   0.0001950084988493,  0.0005422437097877, -0.0039377100765705 ]
  - [   0.0002942405117210,  0.0005601099692285, -0.0038227466866374 ]
  - [   0.0002941570710391,  0.0006105650682002, -0.0039456170052290 ]
  - [   0.0003382889844943,  0.0005845858249813, -0.0038840165361762 ]
  - [   0.0003602833894547,  0.0003597735776566,  0.0902619212865829 ]
  - [   0.0003309540043119,  0.0005347009864636,  0.0908726304769516 ]
  - [   0.0003556202573236,  0.0007141054375097,  0.0914785638451576 ]
  - [   0.0003367371391505,  0.0005323521327227,  0.0908704027533531 ]
  - [   0.0003397947875783,  0.0005402477690950,  0.0908774659037590 ]
  - [   0.0003689291479532,  0.0005386706907302,  0.0908733829855919 ]
  - [   0.0006657427875325,  0.0005384654505178,  0.0908800140023232 ]
  - [   0.0003287834115326,  0.0005578799173236,  0.0908558070659637 ]
  - [   0.0003224264364690,  0.0005095927044749,  0.0908884629607201 ]
  - [  -0.0013311019865796, -0.0007821207400411, -0.2554526329040527 ]
  - [  -0.0012661385117099, -0.0007813703850843, -0.2554099559783936 ]
  - [  -0.0012480900622904, -0.0007877096068114, -0.2554514408111572 ]
  - [  -0.0012582306517288, -0.0007920584757812, -0.2554231882095337 ]
  - [  -0.0012599114561453, -0.0007785098860040, -0.2554379403591156 ]
  - [  -0.0012594126164913, -0.0007825191714801, -0.2554476857185364 ]
  - [  -0.0012540128082037, -0.0007798838196322, -0.2554506957530975 ]
  - [  -0.0012582233175635, -0.0007888399995863, -0.2554163038730621 ]
  - [  -0.0012627782998607, -0.0007845652289689, -0.2554415464401245 ]
  - [   0.0030670370906591,  0.0018977317959070,  0.1881508380174637 ]
  - [   0.0031156255863607, -0.0023462548851967,  0.1851829588413239 ]
  - [  -0.0001038291520672, -0.0002042017877102,  0.1866816282272339 ]
  - [  -0.0005805138498545, -0.0002089943736792,  0.1866812855005264 ]
  - [  -0.0000721812248230, -0.0001837154850364,  0.1866892874240875 ]
  - [  -0.0000705905258656, -0.0002269428223372,  0.1866759210824966 ]
  - [  -0.0001095109619200, -0.0002005971036851,  0.1866897642612457 ]
  - [  -0.0001083416864276, -0.0002030571922660,  0.1866832077503204 ]
  - [  -0.0001091901212931, -0.0002075852826238,  0.1866739392280579 ]
  - [   0.0002366190892644, -0.0004749740473926, -0.0001798383891582 ]
  - [   0.0001895855966723, -0.0003381168935448, -0.0002207905054092 ]
  - [   0.0002321145730093, -0.0002000969834626, -0.0002602208405733 ]
  - [   0.0002001048997045, -0.0003416731487960, -0.0002376139163971 ]
  - [   0.0002008303999901, -0.0003308032173663, -0.0002067610621452 ]
  - [   0.0002270154654980, -0.0003378528635949, -0.0002211332321167 ]
  - [   0.0004758927971125, -0.0003385134041309, -0.0002256948500872 ]
  - [   0.0001976266503334, -0.0003196280449629, -0.0002377899363637 ]
  - [   0.0002024788409472, -0.0003525149077177, -0.0002069473266602 ]
  - [  -0.0024362117983401, -0.0026517710648477, -0.0243503209203482 ]
  - [  -0.0023206132464111, -0.0022091995924711, -0.0242880750447512 ]
  - [  -0.0024409592151642, -0.0017949475441128, -0.0242108106613159 ]
  - [  -0.0022623701952398, -0.0023026799317449, -0.0243880599737167 ]
  - [  -0.0022409697994590, -0.0021269177086651, -0.0241935513913631 ]
  - [  -0.0031795462127775, -0.0022012819536030, -0.0242757406085730 ]
  - [  -0.0020983554422855, -0.0022045208606869, -0.0242855027318001 ]
  - [  -0.0023053032346070, -0.0021974688861519, -0.0243094600737095 ]
  - [  -0.0023040738888085, -0.0022150555159897, -0.0242585577070713 ]
  - [  -0.0003652060404420,  0.0005192398093641,  0.2736512422561646 ]
  - [  -0.0003627734258771,  0.0004919704515487,  0.2737207710742950 ]
  - [  -0.0003474149852991,  0.0005454327911139,  0.2736828327178955 ]
  - [  -0.0003879583091475,  0.0005240123718977,  0.2736716568470001 ]
  - [  -0.0002897484810092,  0.0005214861594141,  0.2736825048923492 ]
  - [  -0.0003882821474690,  0.0005117268301547,  0.2737013995647430 ]
  - [  -0.0003529404639266,  0.0005309921689332,  0.2736679017543793 ]
  - [  -0.0003578679170460,  0.0005108667537570,  0.2737002968788147 ]
  - [  -0.0003591610002331,  0.0005127671174705,  0.2736874520778656 ]
  - [   0.0003297751536593,  0.0006808821344748, -0.3627195358276367 ]
  - [   0.0003095088759437,  0.0008514411747456, -0.3626575469970703 ]
  - [   0.0003869482316077,  0.0007698396220803, -0.3626875877380371 ]
  - [   0.0004670044581871,  0.0007637199014425, -0.3626856803894043 ]
  - [   0.0004358656588010,  0.0007542185485363, -0.3626775145530701 ]
  - [   0.0004325431946199,  0.0007741833105683, -0.3627004325389862 ]
  - [   0.0004197400703561,  0.0007438343018293, -0.3626814484596252 ]
  - [   0.0004509370774031,  0.0007721949368715, -0.3626911640167236 ]
  - [   0.0004222725110594,  0.0007837945595384, -0.3626943230628967 ]
  - [   0.0099383890628815,  0.0063968850299716, -0.2490361630916595 ]
  - [   0.0030480637215078,  0.0024593649432063, -0.2510162591934204 ]
  - [   0.0097483266144991, -0.0013070786371827, -0.2528878152370453 ]
  - [   0.0036663273349404,  0.0021047126501799, -0.2509887218475342 ]
  - [   0.0036672074347734,  0.0028193932957947, -0.2510420382022858 ]
  - [   0.0039694961160421,  0.0024597533047199, -0.2510149180889130 ]
  - [   0.0031716539524496,  0.0024825702421367, -0.2510189414024353 ]
  - [   0.0037616435438395,  0.0025824210606515, -0.2510170042514801 ]
  - [   0.0037509058602154,  0.0023348028771579, -0.2510083615779877 ]
  - [  -0.0001371209509671, -0.0016351174563169,  0.2021044492721558 ]
  - [  -0.0012618890032172, -0.0015429379418492,  0.2022174447774887 ]
  - [  -0.0012697102501988, -0.0017232568934560,  0.2019369602203369 ]
  - [  -0.0011308933608234, -0.0017502680420876,  0.2022003531455994 ]
  - [  -0.0012153787538409, -0.0016350997611880,  0.2020778954029083 ]
  - [  -0.0011348840780556, -0.0015144152566791,  0.2019511014223099 ]
  - [  -0.0011750943958759, -0.0016489606350660,  0.2020602524280548 ]
  - [  -0.0011725109070539, -0.0016246121376753,  0.2020947933197021 ]
  - [  -0.0011630458757281, -0.0016340883448720,  0.2020765691995621 ]
  - [   0.0010167416185141,  0.0010967142879963,  0.0597452707588673 ]
  - [   0.0010222401469946,  0.0011466108262539,  0.0604584626853466 ]
  - [   0.0011808723211288,  0.0011352058500051,  0.0600855350494385 ]
  - [   0.0010527558624744,  0.0011294037103653,  0.0600965917110443 ]
  - [   0.0010786075145006,  0.0011261776089668,  0.0601258426904678 ]
  - [   0.0010751392692327,  0.0011290665715933,  0.0600705444812775 ]
  - [   0.0010473094880581,  0.0012177564203739,  0.0601533353328705 ]
  - [   0.0010689646005630,  0.0011338517069817,  0.0601066872477531 ]
  - [   0.0010181516408920,  0.0010368451476097,  0.0600358881056309 ]
- atom:    1
  displacement:
    [  -0.0100000000000000,  0.0000000000000000,  0.0000000000000000 ]
  forces:
  - [   0.0156934447586536, -0.0008570664795116,  0.0840825736522675 ]
  - [  -0.0011082284618169, -0.0005821533850394,  0.0841594785451889 ]
  - [  -0.0011113837826997, -0.0010766934137791,  0.0840677246451378 ]
  - [  -0.0010270884959027, -0.0011163486633450,  0.0841932296752930 ]
  - [  -0.0009028163040057, -0.0008268691599369,  0.0841152966022491 ]
  - [  -0.0010283373994753, -0.0005345825338736,  0.0840354785323143 ]
  - [  -0.0010278832633048, -0.0006258375360630,  0.0841495841741562 ]
  - [  -0.0010289184283465, -0.0010258086258546,  0.0840814933180809 ]
  - [  -0.0009054666734301, -0.0008269220124930,  0.0841149538755417 ]
  - [   0.0006957945879549,  0.0005834749899805, -0.0038902745582163 ]
  - [   0.0003927429206669,  0.0007066931575537, -0.0038772569969296 ]
  - [   0.0003917263820767,  0.0004658289253712, -0.0038931388407946 ]
  - [   0.0004570343880914,  0.0005431924946606, -0.0039374800398946 ]
  - [   0.0001636069209781,  0.0005858601070940, -0.0038832039572299 ]
  - [   0.0004554957558867,  0.0006274182815105, -0.0038322671316564 ]
  - [   0.0003570776025299,  0.0006105885840952, -0.0039461888372898 ]
  - [   0.0003562408965081,  0.0005603861063719, -0.0038233250379562 ]
  - [   0.0003101173788309,  0.0005851618479937, -0.0038833534345031 ]
  - [   0.0003599075134844,  0.0007189738098532,  0.0914721637964249 ]
  - [   0.0003768162277993,  0.0005355820758268,  0.0908740311861038 ]
  - [   0.0003382106078789,  0.0003661817754619,  0.0902548134326935 ]
  - [   0.0003704238333739,  0.0005402375245467,  0.0908778086304665 ]
  - [   0.0003720375825651,  0.0005326054524630,  0.0908700153231621 ]
  - [   0.0003383156436030,  0.0005381931550801,  0.0908734276890755 ]
  - [   0.0000433591194451,  0.0005377525230870,  0.0908774957060814 ]
  - [   0.0003813323564827,  0.0005098010879010,  0.0908893123269081 ]
  - [   0.0003758440725505,  0.0005570283392444,  0.0908553302288055 ]
  - [  -0.0011882458347827, -0.0007855236763135, -0.2554292976856232 ]
  - [  -0.0012518636649475, -0.0007865632651374, -0.2554628551006317 ]
  - [  -0.0012672183802351, -0.0007801278261468, -0.2554214000701904 ]
  - [  -0.0012607073877007, -0.0007763525354676, -0.2554503679275513 ]
  - [  -0.0012558731250465, -0.0007913546869531, -0.2554343342781067 ]
  - [  -0.0012602139031515, -0.0007850216352381, -0.2554236948490143 ]
  - [  -0.0012625132221729, -0.0007885286468081, -0.2554219365119934 ]