phonopy:
  version: "2.37.1"
  frequency_unit_conversion_factor: 15.633302
  symmetry_tolerance: 1.00000e-05

space_group:
  type: "P1"
  number: 1
  Hall_symbol: "P 1"

primitive_matrix:
- [  1.000000000000000, -0.000000000000000,  1.000000000000000 ]
- [  0.000000000000000,  0.000000000000000,  1.000000000000000 ]
- [  0.000000000000000, -1.000000000000000,  0.000000000000000 ]

supercell_matrix:
- [   3,   0,   0 ]
- [   0,   2,   0 ]
- [   0,   0,   2 ]

primitive_cell:
  lattice:
  - [     4.342586114132354,     0.000000000000000,     0.000000000000000 ] # a
  - [     0.000388932131881,     2.109714751039424,    -6.386530489898710 ] # b
  - [     2.170530780779095,     6.395390463027701,     0.000000000000000 ] # c
  points:
  - symbol: Li # 1
    coordinates: [  0.242698570142628,  0.921855033641688,  0.624813928610528 ]
    mass: 6.940000
  - symbol: Li # 2
    coordinates: [  0.143796031107394,  0.253023849773195,  0.823179518245993 ]
    mass: 6.940000
  - symbol: Li # 3
    coordinates: [  0.934926643934134,  0.927440333461102,  0.240335100039624 ]
    mass: 6.940000
  - symbol: Li # 4
    coordinates: [  0.038119853352602,  0.584314245756490,  0.034321030535370 ]
    mass: 6.940000
  - symbol: Li # 5
    coordinates: [  0.361754003945628,  0.577102241256560,  0.386794714010438 ]
    mass: 6.940000
  - symbol: Ga # 6
    coordinates: [  0.581484145731117,  0.909794123627576,  0.947302112791988 ]
    mass: 69.723000
  - symbol: Sn # 7
    coordinates: [  0.704773852866414,  0.604234724944957,  0.700764500778613 ]
    mass: 118.710000
  - symbol: Sn # 8
    coordinates: [  0.806219633098260,  0.251062309702573,  0.498182208369741 ]
    mass: 118.710000
  - symbol: Sn # 9
    coordinates: [  0.477063629973055,  0.238001614699416,  0.156405324064327 ]
    mass: 118.710000
  reciprocal_lattice: # without 2pi
  - [     0.230277529038661,    -0.078153862190228,    -0.025803179651891 ] # a*
  - [     0.000000000000000,     0.000000000000000,    -0.156579539012873 ] # b*
  - [     0.000000000000000,     0.156362618636201,     0.051652540228173 ] # c*

unit_cell:
  lattice:
  - [     4.342586114132355,     0.000000000000000,     0.000000000000000 ] # a
  - [    -2.172055333353259,     6.395390463027701,     0.000000000000000 ] # b
  - [    -0.000388932131882,    -2.109714751039424,     6.386530489898710 ] # c
  points:
  - symbol: Li # 1
    coordinates: [  0.867512498753156,  0.624813928610528,  0.078144966358312 ]
    mass: 6.940000
    reduced_to: 1
  - symbol: Li # 2
    coordinates: [  0.966975549353387,  0.823179518245993,  0.746976150226805 ]
    mass: 6.940000
    reduced_to: 2
  - symbol: Li # 3
    coordinates: [  0.175261743973758,  0.240335100039624,  0.072559666538898 ]
    mass: 6.940000
    reduced_to: 3
  - symbol: Li # 4
    coordinates: [  0.072440883887972,  0.034321030535370,  0.415685754243510 ]
    mass: 6.940000
    reduced_to: 4
  - symbol: Li # 5
    coordinates: [  0.748548717956066,  0.386794714010438,  0.422897758743440 ]
    mass: 6.940000
    reduced_to: 5
  - symbol: Ga # 6
    coordinates: [  0.528786258523105,  0.947302112791988,  0.090205876372424 ]
    mass: 69.723000
    reduced_to: 6
  - symbol: Sn # 7
    coordinates: [  0.405538353645027,  0.700764500778613,  0.395765275055043 ]
    mass: 118.710000
    reduced_to: 7
  - symbol: Sn # 8
    coordinates: [  0.304401841468001,  0.498182208369741,  0.748937690297427 ]
    mass: 118.710000
    reduced_to: 8
  - symbol: Sn # 9
    coordinates: [  0.633468954037383,  0.156405324064327,  0.761998385300584 ]
    mass: 118.710000
    reduced_to: 9

supercell:
  lattice:
  - [    13.027758342397064,     0.000000000000000,     0.000000000000000 ] # a
  - [    -4.344110666706518,    12.790780926055403,     0.000000000000000 ] # b
  - [    -0.000777864263763,    -4.219429502078848,    12.773060979797419 ] # c
  points:
  - symbol: Li # 1
    coordinates: [  0.289170832917719,  0.312406964305264,  0.039072483179156 ]
    mass: 6.940000
    reduced_to: 1
  - symbol: Li # 2
    coordinates: [  0.622504166251052,  0.312406964305264,  0.039072483179156 ]
    mass: 6.940000
    reduced_to: 1
  - symbol: Li # 3
    coordinates: [  0.955837499584385,  0.312406964305264,  0.039072483179156 ]
    mass: 6.940000
    reduced_to: 1
  - symbol: Li # 4
    coordinates: [  0.289170832917719,  0.812406964305264,  0.039072483179156 ]
    mass: 6.940000
    reduced_to: 1
  - symbol: Li # 5
    coordinates: [  0.622504166251052,  0.812406964305264,  0.039072483179156 ]
    mass: 6.940000
    reduced_to: 1
  - symbol: Li # 6
    coordinates: [  0.955837499584385,  0.812406964305264,  0.039072483179156 ]
    mass: 6.940000
    reduced_to: 1
  - symbol: Li # 7
    coordinates: [  0.289170832917719,  0.312406964305264,  0.539072483179156 ]
    mass: 6.940000
    reduced_to: 1
  - symbol: Li # 8
    coordinates: [  0.622504166251052,  0.312406964305264,  0.539072483179156 ]
    mass: 6.940000
    reduced_to: 1
  - symbol: Li # 9
    coordinates: [  0.955837499584385,  0.312406964305264,  0.539072483179156 ]
    mass: 6.940000
    reduced_to: 1
  - symbol: Li # 10
    coordinates: [  0.289170832917719,  0.812406964305264,  0.539072483179156 ]
    mass: 6.940000
    reduced_to: 1
  - symbol: Li # 11
    coordinates: [  0.622504166251052,  0.812406964305264,  0.539072483179156 ]
    mass: 6.940000
    reduced_to: 1
  - symbol: Li # 12
    coordinates: [  0.955837499584385,  0.812406964305264,  0.539072483179156 ]
    mass: 6.940000
    reduced_to: 1
  - symbol: Li # 13
    coordinates: [  0.322325183117796,  0.411589759122997,  0.373488075113403 ]
    mass: 6.940000
    reduced_to: 13
  - symbol: Li # 14
    coordinates: [  0.655658516451129,  0.411589759122997,  0.373488075113403 ]
    mass: 6.940000
    reduced_to: 13
  - symbol: Li # 15
    coordinates: [  0.988991849784462,  0.411589759122997,  0.373488075113403 ]
    mass: 6.940000
    reduced_to: 13
  - symbol: Li # 16
    coordinates: [  0.322325183117796,  0.911589759122997,  0.373488075113403 ]
    mass: 6.940000
    reduced_to: 13
  - symbol: Li # 17
    coordinates: [  0.655658516451129,  0.911589759122997,  0.373488075113403 ]
    mass: 6.940000
    reduced_to: 13
  - symbol: Li # 18
    coordinates: [  0.988991849784462,  0.911589759122997,  0.373488075113403 ]
    mass: 6.940000
    reduced_to: 13
  - symbol: Li # 19
    coordinates: [  0.322325183117796,  0.411589759122997,  0.873488075113403 ]
    mass: 6.940000
    reduced_to: 13
  - symbol: Li # 20
    coordinates: [  0.655658516451129,  0.411589759122997,  0.873488075113403 ]
    mass: 6.940000
    reduced_to: 13
  - symbol: Li # 21
    coordinates: [  0.988991849784462,  0.411589759122997,  0.873488075113403 ]
    mass: 6.940000
    reduced_to: 13
  - symbol: Li # 22
    coordinates: [  0.322325183117796,  0.911589759122997,  0.873488075113403 ]
    mass: 6.940000
    reduced_to: 13
  - symbol: Li # 23
    coordinates: [  0.655658516451129,  0.911589759122997,  0.873488075113403 ]
    mass: 6.940000
    reduced_to: 13
  - symbol: Li # 24
    coordinates: [  0.988991849784462,  0.911589759122997,  0.873488075113403 ]
    mass: 6.940000
    reduced_to: 13
  - symbol: Li # 25
    coordinates: [  0.058420581324586,  0.120167550019812,  0.036279833269449 ]
    mass: 6.940000
    reduced_to: 25
  - symbol: Li # 26
    coordinates: [  0.391753914657919,  0.120167550019812,  0.036279833269449 ]
    mass: 6.940000
    reduced_to: 25
  - symbol: Li # 27
    coordinates: [  0.725087247991252,  0.120167550019812,  0.036279833269449 ]
    mass: 6.940000
    reduced_to: 25
  - symbol: Li # 28
    coordinates: [  0.058420581324586,  0.620167550019812,  0.036279833269449 ]
    mass: 6.940000
    reduced_to: 25
  - symbol: Li # 29
    coordinates: [  0.391753914657919,  0.620167550019812,  0.036279833269449 ]
    mass: 6.940000
    reduced_to: 25
  - symbol: Li # 30
    coordinates: [  0.725087247991252,  0.620167550019812,  0.036279833269449 ]
    mass: 6.940000
    reduced_to: 25
  - symbol: Li # 31
    coordinates: [  0.058420581324586,  0.120167550019812,  0.536279833269449 ]
    mass: 6.940000
    reduced_to: 25
  - symbol: Li # 32
    coordinates: [  0.391753914657919,  0.120167550019812,  0.536279833269449 ]
    mass: 6.940000
    reduced_to: 25
  - symbol: Li # 33
    coordinates: [  0.725087247991252,  0.120167550019812,  0.536279833269449 ]
    mass: 6.940000
    reduced_to: 25
  - symbol: Li # 34
    coordinates: [  0.058420581324586,  0.620167550019812,  0.536279833269449 ]
    mass: 6.940000
    reduced_to: 25
  - symbol: Li # 35
    coordinates: [  0.391753914657919,  0.620167550019812,  0.536279833269449 ]
    mass: 6.940000
    reduced_to: 25
  - symbol: Li # 36
    coordinates: [  0.725087247991252,  0.620167550019812,  0.536279833269449 ]
    mass: 6.940000
    reduced_to: 25
  - symbol: Li # 37
    coordinates: [  0.024146961295991,  0.017160515267685,  0.207842877121755 ]
    mass: 6.940000
    reduced_to: 37
  - symbol: Li # 38
    coordinates: [  0.357480294629324,  0.017160515267685,  0.207842877121755 ]
    mass: 6.940000
    reduced_to: 37
  - symbol: Li # 39
    coordinates: [  0.690813627962657,  0.017160515267685,  0.207842877121755 ]
    mass: 6.940000
    reduced_to: 37
  - symbol: Li # 40
    coordinates: [  0.024146961295991,  0.517160515267685,  0.207842877121755 ]
    mass: 6.940000
    reduced_to: 37
  - symbol: Li # 41
    coordinates: [  0.357480294629324,  0.517160515267685,  0.207842877121755 ]
    mass: 6.940000
    reduced_to: 37
  - symbol: Li # 42
    coordinates: [  0.690813627962657,  0.517160515267685,  0.207842877121755 ]
    mass: 6.940000
    reduced_to: 37
  - symbol: Li # 43
    coordinates: [  0.024146961295991,  0.017160515267685,  0.707842877121755 ]
    mass: 6.940000
    reduced_to: 37
  - symbol: Li # 44
    coordinates: [  0.357480294629324,  0.017160515267685,  0.707842877121755 ]
    mass: 6.940000
    reduced_to: 37
  - symbol: Li # 45
    coordinates: [  0.690813627962657,  0.017160515267685,  0.707842877121755 ]
    mass: 6.940000
    reduced_to: 37
  - symbol: Li # 46
    coordinates: [  0.024146961295991,  0.517160515267685,  0.707842877121755 ]
    mass: 6.940000
    reduced_to: 37
  - symbol: Li # 47
    coordinates: [  0.357480294629324,  0.517160515267685,  0.707842877121755 ]
    mass: 6.940000
    reduced_to: 37
  - symbol: Li # 48
    coordinates: [  0.690813627962657,  0.517160515267685,  0.707842877121755 ]
    mass: 6.940000
    reduced_to: 37
  - symbol: Li # 49
    coordinates: [  0.249516239318689,  0.193397357005219,  0.211448879371720 ]
    mass: 6.940000
    reduced_to: 49
  - symbol: Li # 50
    coordinates: [  0.582849572652022,  0.193397357005219,  0.211448879371720 ]
    mass: 6.940000
    reduced_to: 49
  - symbol: Li # 51
    coordinates: [  0.916182905985355,  0.193397357005219,  0.211448879371720 ]
    mass: 6.940000
    reduced_to: 49
  - symbol: Li # 52
    coordinates: [  0.249516239318689,  0.693397357005219,  0.211448879371720 ]
    mass: 6.940000
    reduced_to: 49
  - symbol: Li # 53
    coordinates: [  0.582849572652022,  0.693397357005219,  0.211448879371720 ]
    mass: 6.940000
    reduced_to: 49
  - symbol: Li # 54
    coordinates: [  0.916182905985355,  0.693397357005219,  0.211448879371720 ]
    mass: 6.940000
    reduced_to: 49
  - symbol: Li # 55
    coordinates: [  0.249516239318689,  0.193397357005219,  0.711448879371720 ]
    mass: 6.940000
    reduced_to: 49
  - symbol: Li # 56
    coordinates: [  0.582849572652022,  0.193397357005219,  0.711448879371720 ]
    mass: 6.940000
    reduced_to: 49
  - symbol: Li # 57
    coordinates: [  0.916182905985355,  0.193397357005219,  0.711448879371720 ]
    mass: 6.940000
    reduced_to: 49
  - symbol: Li # 58
    coordinates: [  0.249516239318689,  0.693397357005219,  0.711448879371720 ]
    mass: 6.940000
    reduced_to: 49
  - symbol: Li # 59
    coordinates: [  0.582849572652022,  0.693397357005219,  0.711448879371720 ]
    mass: 6.940000
    reduced_to: 49
  - symbol: Li # 60
    coordinates: [  0.916182905985355,  0.693397357005219,  0.711448879371720 ]
    mass: 6.940000
    reduced_to: 49
  - symbol: Ga # 61
    coordinates: [  0.176262086174368,  0.473651056395994,  0.045102938186212 ]
    mass: 69.723000
    reduced_to: 61
  - symbol: Ga # 62
    coordinates: [  0.509595419507702,  0.473651056395994,  0.045102938186212 ]
    mass: 69.723000
    reduced_to: 61
  - symbol: Ga # 63
    coordinates: [  0.842928752841035,  0.473651056395994,  0.045102938186212 ]
    mass: 69.723000
    reduced_to: 61
  - symbol: Ga # 64
    coordinates: [  0.176262086174368,  0.973651056395994,  0.045102938186212 ]
    mass: 69.723000
    reduced_to: 61
  - symbol: Ga # 65
    coordinates: [  0.509595419507702,  0.973651056395994,  0.045102938186212 ]
    mass: 69.723000
    reduced_to: 61
  - symbol: Ga # 66
    coordinates: [  0.842928752841035,  0.973651056395994,  0.045102938186212 ]
    mass: 69.723000
    reduced_to: 61
  - symbol: Ga # 67
    coordinates: [  0.176262086174368,  0.473651056395994,  0.545102938186212 ]
    mass: 69.723000
    reduced_to: 61
  - symbol: Ga # 68
    coordinates: [  0.509595419507702,  0.473651056395994,  0.545102938186212 ]
    mass: 69.723000
    reduced_to: 61
  - symbol: Ga # 69
    coordinates: [  0.842928752841035,  0.473651056395994,  0.545102938186212 ]
    mass: 69.723000
    reduced_to: 61
  - symbol: Ga # 70
    coordinates: [  0.176262086174368,  0.973651056395994,  0.545102938186212 ]
    mass: 69.723000
    reduced_to: 61
  - symbol: Ga # 71
    coordinates: [  0.509595419507702,  0.973651056395994,  0.545102938186212 ]
    mass: 69.723000
    reduced_to: 61
  - symbol: Ga # 72
    coordinates: [  0.842928752841035,  0.973651056395994,  0.545102938186212 ]
    mass: 69.723000
    reduced_to: 61
  - symbol: Sn # 73
    coordinates: [  0.135179451215009,  0.350382250389307,  0.197882637527522 ]
    mass: 118.710000
    reduced_to: 73
  - symbol: Sn # 74
    coordinates: [  0.468512784548342,  0.350382250389307,  0.197882637527522 ]
    mass: 118.710000
    reduced_to: 73
  - symbol: Sn # 75
    coordinates: [  0.801846117881676,  0.350382250389307,  0.197882637527522 ]
    mass: 118.710000
    reduced_to: 73
  - symbol: Sn # 76
    coordinates: [  0.135179451215009,  0.850382250389307,  0.197882637527522 ]
    mass: 118.710000
    reduced_to: 73
  - symbol: Sn # 77
    coordinates: [  0.468512784548342,  0.850382250389307,  0.197882637527522 ]
    mass: 118.710000
    reduced_to: 73
  - symbol: Sn # 78
    coordinates: [  0.801846117881676,  0.850382250389307,  0.197882637527522 ]
    mass: 118.710000
    reduced_to: 73
  - symbol: Sn # 79
    coordinates: [  0.135179451215009,  0.350382250389307,  0.697882637527522 ]
    mass: 118.710000
    reduced_to: 73
  - symbol: Sn # 80
    coordinates: [  0.468512784548342,  0.350382250389307,  0.697882637527522 ]
    mass: 118.710000
    reduced_to: 73
  - symbol: Sn # 81
    coordinates: [  0.801846117881676,  0.350382250389307,  0.697882637527522 ]
    mass: 118.710000
    reduced_to: 73
  - symbol: Sn # 82
    coordinates: [  0.135179451215009,  0.850382250389307,  0.697882637527522 ]
    mass: 118.710000
    reduced_to: 73
  - symbol: Sn # 83
    coordinates: [  0.468512784548342,  0.850382250389307,  0.697882637527522 ]
    mass: 118.710000
    reduced_to: 73
  - symbol: Sn # 84
    coordinates: [  0.801846117881676,  0.850382250389307,  0.697882637527522 ]
    mass: 118.710000
    reduced_to: 73
  - symbol: Sn # 85
    coordinates: [  0.101467280489334,  0.249091104184870,  0.374468845148713 ]
    mass: 118.710000
    reduced_to: 85
  - symbol: Sn # 86
    coordinates: [  0.434800613822667,  0.249091104184870,  0.374468845148713 ]
    mass: 118.710000
    reduced_to: 85
  - symbol: Sn # 87
    coordinates: [  0.768133947156000,  0.249091104184870,  0.374468845148713 ]
    mass: 118.710000
    reduced_to: 85
  - symbol: Sn # 88
    coordinates: [  0.101467280489334,  0.749091104184870,  0.374468845148713 ]
    mass: 118.710000
    reduced_to: 85
  - symbol: Sn # 89
    coordinates: [  0.434800613822667,  0.749091104184870,  0.374468845148713 ]
    mass: 118.710000
    reduced_to: 85
  - symbol: Sn # 90
    coordinates: [  0.768133947156000,  0.749091104184870,  0.374468845148713 ]
    mass: 118.710000
    reduced_to: 85
  - symbol: Sn # 91
    coordinates: [  0.101467280489334,  0.249091104184870,  0.874468845148713 ]
    mass: 118.710000
    reduced_to: 85
  - symbol: Sn # 92
    coordinates: [  0.434800613822667,  0.249091104184870,  0.874468845148713 ]
    mass: 118.710000
    reduced_to: 85
  - symbol: Sn # 93
    coordinates: [  0.768133947156000,  0.249091104184870,  0.874468845148713 ]
    mass: 118.710000
    reduced_to: 85
  - symbol: Sn # 94
    coordinates: [  0.101467280489334,  0.749091104184870,  0.874468845148713 ]
    mass: 118.710000
    reduced_to: 85
  - symbol: Sn # 95
    coordinates: [  0.434800613822667,  0.749091104184870,  0.874468845148713 ]
    mass: 118.710000
    reduced_to: 85
  - symbol: Sn # 96
    coordinates: [  0.768133947156000,  0.749091104184870,  0.874468845148713 ]
    mass: 118.710000
    reduced_to: 85
  - symbol: Sn # 97
    coordinates: [  0.211156318012461,  0.078202662032164,  0.380999192650292 ]
    mass: 118.710000
    reduced_to: 97
  - symbol: Sn # 98
    coordinates: [  0.544489651345794,  0.078202662032164,  0.380999192650292 ]
    mass: 118.710000
    reduced_to: 97
  - symbol: Sn # 99
    coordinates: [  0.877822984679128,  0.078202662032164,  0.380999192650292 ]
    mass: 118.710000
    reduced_to: 97
  - symbol: Sn # 100
    coordinates: [  0.211156318012461,  0.578202662032164,  0.380999192650292 ]
    mass: 118.710000
    reduced_to: 97
  - symbol: Sn # 101
    coordinates: [  0.544489651345794,  0.578202662032164,  0.380999192650292 ]
    mass: 118.710000
    reduced_to: 97
  - symbol: Sn # 102
    coordinates: [  0.877822984679128,  0.578202662032164,  0.380999192650292 ]
    mass: 118.710000
    reduced_to: 97
  - symbol: Sn # 103
    coordinates: [  0.211156318012461,  0.078202662032164,  0.880999192650292 ]
    mass: 118.710000
    reduced_to: 97
  - symbol: Sn # 104
    coordinates: [  0.544489651345794,  0.078202662032164,  0.880999192650292 ]
    mass: 118.710000
    reduced_to: 97
  - symbol: Sn # 105
    coordinates: [  0.877822984679128,  0.078202662032164,  0.880999192650292 ]
    mass: 118.710000
    reduced_to: 97
  - symbol: Sn # 106
    coordinates: [  0.211156318012461,  0.578202662032164,  0.880999192650292 ]
    mass: 118.710000
    reduced_to: 97
  - symbol: Sn # 107
    coordinates: [  0.544489651345794,  0.578202662032164,  0.880999192650292 ]
    mass: 118.710000
    reduced_to: 97
  - symbol: Sn # 108
    coordinates: [  0.877822984679128,  0.578202662032164,  0.880999192650292 ]
    mass: 118.710000
    reduced_to: 97

displacements:
- atom:    1
  displacement:
    [   0.0100000000000000,  0.0000000000000000,  0.0000000000000000 ]
  forces:
  - [  -0.0167836099863052, -0.0466794744133949,  0.0615689568221569 ]
  - [   0.0011067613959312, -0.0467327982187271,  0.0613094121217728 ]
  - [   0.0011247444199398, -0.0465775988996029,  0.0619122870266438 ]
  - [   0.0006402087747119, -0.0466624647378922,  0.0616178363561630 ]
  - [   0.0006542492192239, -0.0466811209917068,  0.0616038292646408 ]
  - [   0.0006556875305250, -0.0466156378388405,  0.0616084709763527 ]
  - [   0.0007325989427045, -0.0466513708233833,  0.0616109780967236 ]
  - [   0.0006101464387029, -0.0466574318706989,  0.0615988783538342 ]
  - [   0.0006097631412558, -0.0466440096497536,  0.0616241842508316 ]
  - [   0.0006427532644011, -0.0466390699148178,  0.0616187080740929 ]
  - [   0.0006553996354342, -0.0466650500893593,  0.0615987293422222 ]
  - [   0.0006546038202941, -0.0466536656022072,  0.0616140402853489 ]
  - [  -0.0004638507962227,  0.0182259231805801,  0.0242320653051138 ]
  - [  -0.0015299944207072,  0.0181893222033978,  0.0239349305629730 ]
  - [  -0.0015303241088986,  0.0182586237788200,  0.0245318487286568 ]
  - [  -0.0010984177934006,  0.0182237587869167,  0.0242205038666725 ]
  - [  -0.0011002300307155,  0.0182248707860708,  0.0242398418486118 ]
  - [  -0.0011011688038707,  0.0182199086993933,  0.0242428332567215 ]
  - [  -0.0003531929105520,  0.0182183347642422,  0.0242400057613850 ]
  - [  -0.0012991270050406,  0.0183176733553410,  0.0242479518055916 ]
  - [  -0.0013043144717813,  0.0181328281760216,  0.0242200121283531 ]
  - [  -0.0012030319776386,  0.0184103716164827,  0.0242511630058289 ]
  - [  -0.0011513305362314,  0.0182238612323999,  0.0242339409887791 ]
  - [  -0.0012131948024035,  0.0180357843637466,  0.0242160968482494 ]
  - [   0.0015006260946393,  0.0511733591556549,  0.0712783932685852 ]
  - [   0.0015069395303726,  0.0500216670334339,  0.0710178986191750 ]
  - [   0.0009296946227551,  0.0506046637892723,  0.0711464434862137 ]
  - [   0.0006576450541615,  0.0507920458912849,  0.0711784064769745 ]
  - [   0.0012776954099536,  0.0506051294505596,  0.0711457207798958 ]
  - [   0.0006536468863487,  0.0504157096147537,  0.0711114779114723 ]
  - [   0.0009011076763272,  0.0505244284868240,  0.0710917711257935 ]
  - [   0.0009018220007420,  0.0506813265383244,  0.0711978599429131 ]
  - [   0.0009186817333102,  0.0506040602922440,  0.0711454227566719 ]
  - [   0.0008795289322734,  0.0506098270416260,  0.0711799710988998 ]
  - [   0.0009628124535084,  0.0506027378141880,  0.0711429864168167 ]
  - [   0.0008796169422567,  0.0506018176674843,  0.0711103007197380 ]
  - [  -0.0004311862867326,  0.0164400115609169, -0.0399290397763252 ]
  - [  -0.0004254537634552,  0.0165756177157164, -0.0398819968104362 ]
  - [  -0.0004415011499077,  0.0165029708296061, -0.0399061143398285 ]
  - [  -0.0005199273582548,  0.0164557714015245, -0.0399131290614605 ]
  - [  -0.0007304737810045,  0.0164976175874472, -0.0399138331413269 ]
  - [  -0.0005175938131288,  0.0165566541254520, -0.0399014018476009 ]
  - [  -0.0003835184033960,  0.0165140312165022, -0.0399049483239651 ]
  - [  -0.0003836184041575,  0.0164983216673136, -0.0399089828133583 ]
  - [  -0.0004828940145671,  0.0165068786591291, -0.0399071797728539 ]
  - [  -0.0004746097838506,  0.0165497455745935, -0.0399114005267620 ]
  - [  -0.0003998342435807,  0.0165090523660183, -0.0399054996669292 ]
  - [  -0.0004735916154459,  0.0164627023041248, -0.0399028845131397 ]
  - [   0.0006765034049749, -0.0101151093840599, -0.1420643031597137 ]
  - [   0.0003285855345894, -0.0100358240306377, -0.1419590413570404 ]
  - [   0.0003310123574920, -0.0102043487131596, -0.1421606242656708 ]
  - [   0.0005283643840812, -0.0101269409060478, -0.1421189755201340 ]
  - [   0.0005253331037238, -0.0101139508187771, -0.1419993042945862 ]
  - [   0.0005419357330538, -0.0101252757012844, -0.1420588344335556 ]
  - [   0.0008492267807014, -0.0101228393614292, -0.1420529484748840 ]
  - [  -0.0002417273062747, -0.0101358219981194, -0.1414035260677338 ]
  - [  -0.0002401702804491, -0.0101086832582951, -0.1427085548639297 ]
  - [   0.0005214457632974, -0.0101410299539566, -0.1420136392116547 ]
  - [   0.0005312779685482, -0.0101103521883488, -0.1420993953943253 ]
  - [   0.0005243443883955, -0.0101140141487122, -0.1420611143112183 ]
  - [   0.0021082893945277, -0.0581094399094582, -0.0933186486363411 ]
  - [   0.0021497535053641, -0.0520800910890102, -0.0922169089317322 ]
  - [   0.0000942851547734, -0.0551248975098133, -0.0927682369947433 ]
  - [   0.0002638316946104, -0.0551353394985199, -0.0927698686718941 ]
  - [   0.0001322682946920, -0.0549582056701183, -0.0928496792912483 ]
  - [   0.0001380024186801, -0.0552891977131367, -0.0926820114254951 ]
  - [   0.0002297630853718, -0.0551108121871948, -0.0926858633756638 ]
  - [   0.0002300104679307, -0.0551402419805527, -0.0928515195846558 ]
  - [   0.0002677960437723, -0.0551258996129036, -0.0927705019712448 ]
  - [   0.0002445859136060, -0.0551365911960602, -0.0927782058715820 ]
  - [   0.0002401239180472, -0.0551406890153885, -0.0927761197090149 ]
  - [   0.0002427104336675, -0.0551024414598942, -0.0927547961473465 ]
  - [   0.0040567144751549,  0.0164316650480032,  0.1622827351093292 ]
  - [   0.0041405567899346,  0.0138413533568382,  0.1697718054056168 ]
  - [   0.0005859507946298,  0.0151452105492353,  0.1659744232892990 ]
  - [   0.0005757389590144,  0.0151232704520226,  0.1659821271896362 ]
  - [   0.0005556268733926,  0.0151353478431702,  0.1659661233425140 ]
  - [   0.0005832759197801,  0.0151880998164415,  0.1659775078296661 ]
  - [   0.0006047521601431,  0.0147226424887776,  0.1660782247781754 ]
  - [   0.0006042142631486,  0.0155710345134139,  0.1658693850040436 ]
  - [   0.0006423323065974,  0.0151469632983208,  0.1659743487834930 ]
  - [   0.0006506454083137,  0.0151347238570452,  0.1659767180681229 ]
  - [   0.0005604428588413,  0.0152556411921978,  0.1660958081483841 ]
  - [   0.0005668938392773,  0.0150475483387709,  0.1658473312854767 ]
  - [  -0.0011617677519098, -0.3018022477626801,  0.0199864413589239 ]
  - [  -0.0011599039426073, -0.3022947311401367,  0.0200073011219501 ]
  - [  -0.0010511294240132, -0.3020479977130890,  0.0199955143034458 ]
  - [  -0.0011855354532599, -0.3019847869873047,  0.0199924539774656 ]
  - [  -0.0010027848184109, -0.3020410537719727,  0.0199946612119675 ]
  - [  -0.0011867526918650, -0.3021200299263000,  0.0200020261108875 ]
  - [   0.0023491033352911, -0.3019602000713348,  0.0237277820706367 ]
  - [   0.0023974929936230, -0.3021416068077087,  0.0161955151706934 ]
  - [  -0.0014754976145923, -0.3020538687705994,  0.0199943967163563 ]
  - [  -0.0012120921164751, -0.3019771873950958,  0.0199989043176174 ]
  - [  -0.0009437203407288, -0.3020896911621094,  0.0199995879083872 ]
  - [  -0.0012200474739075, -0.3020888566970825,  0.0199856981635094 ]
  - [  -0.0000533452257514,  0.3134694993495941, -0.0682258978486061 ]
  - [  -0.0003149416297674,  0.3135493993759155, -0.0682350769639015 ]
  - [  -0.0003139544278383,  0.3133816123008728, -0.0682197064161301 ]
  - [  -0.0002801818773150,  0.3131796717643738, -0.0683874487876892 ]
  - [  -0.0002812296152115,  0.3137560784816742, -0.0680691525340080 ]
  - [  -0.0001563811674714,  0.3134691417217255, -0.0682249888777733 ]
  - [  -0.0012841103598475,  0.3134767115116119, -0.0682153478264809 ]
  - [   0.0002875803038478,  0.3131393194198608, -0.0682588890194893 ]
  - [   0.0002846270799637,  0.3138015270233154, -0.0681951269507408 ]
  - [  -0.0002359403297305,  0.3133048117160797, -0.0678376927971840 ]
  - [  -0.0002322318032384,  0.3136377334594727, -0.0686171948909760 ]
  - [  -0.0001726970076561,  0.3134737014770508, -0.0682254359126091 ]
- atom:    1
  displacement:
    [  -0.0100000000000000,  0.0000000000000000,  0.0000000000000000 ]
  forces:
  - [   0.0180853698402643, -0.0466730184853077,  0.0616077929735184 ]
  - [   0.0001779056037776, -0.0465767309069633,  0.0619121417403221 ]
  - [   0.0001958398497663, -0.0467328727245331,  0.0613095797598362 ]
  - [   0.0006596414605156, -0.0466440655291080,  0.0616008937358856 ]
  - [   0.0006445572944358, -0.0466252416372299,  0.0616162940859795 ]
  - [   0.0006460836739279, -0.0466898009181023,  0.0616130009293556 ]
  - [   0.0005691696424037, -0.0466508045792580,  0.0616110265254974 ]
  - [   0.0006918438011780, -0.0466442331671715,  0.0616234615445137 ]
  - [   0.0006915198173374, -0.0466578677296638,  0.0615990161895752 ]
  - [   0.0006601304048672, -0.0466657392680645,  0.0616029575467110 ]
  - [   0.0006464688340202, -0.0466403439640999,  0.0616222657263279 ]
  - [   0.0006458465359174, -0.0466517582535744,  0.0616062954068184 ]
  - [  -0.0017389818094671,  0.0182252600789070,  0.0242329966276884 ]
  - [  -0.0006688358262181,  0.0182589590549469,  0.0245314780622721 ]
  - [  -0.0006682975217700,  0.0181891657412052,  0.0239349789917469 ]
  - [  -0.0011028584558517,  0.0182229299098253,  0.0242483243346214 ]
  - [  -0.0011002896353602,  0.0182203762233257,  0.0242290049791336 ]
  - [  -0.0010963585227728,  0.0182251688092947,  0.0242260210216045 ]
  - [  -0.0018447348847985,  0.0182187017053366,  0.0242399461567402 ]
  - [  -0.0008952324278653,  0.0181327648460865,  0.0242204889655113 ]
  - [  -0.0008991649374366,  0.0183193907141685,  0.0242477543652058 ]
  - [  -0.0009991100523621,  0.0180366672575474,  0.0242168996483088 ]
  - [  -0.0010493982117623,  0.0182222947478294,  0.0242331773042679 ]
  - [  -0.0009895646944642,  0.0184106044471264,  0.0242513604462147 ]
  - [   0.0003054402768612,  0.0500208698213100,  0.0710178837180138 ]
  - [   0.0003154249861836,  0.0511722415685654,  0.0712780803442001 ]
  - [   0.0008836677297950,  0.0506035536527634,  0.0711465254426003 ]
  - [   0.0011578802950680,  0.0504172071814537,  0.0711107999086380 ]
  - [   0.0005372609011829,  0.0506016388535500,  0.0711443647742271 ]
  - [   0.0011609941720963,  0.0507936477661133,  0.0711800009012222 ]
  - [   0.0009124334901571,  0.0506819374859333,  0.0711983591318130 ]
  - [   0.0009136535227299,  0.0505250282585621,  0.0710925459861755 ]
  - [   0.0008953195065260,  0.0506026521325111,  0.0711447000503540 ]
  - [   0.0009340122342110,  0.0505991242825985,  0.0711092874407768 ]
  - [   0.0008525140583515,  0.0506063997745514,  0.0711453929543495 ]
  - [   0.0009353007189929,  0.0506085753440857,  0.0711790844798088 ]
  - [  -0.0004604018758982,  0.0165723022073507, -0.0398826897144318 ]
  - [  -0.0004643616266549,  0.0164370294660330, -0.0399290733039379 ]
  - [  -0.0004484752425924,  0.0165093801915646, -0.0399056486785412 ]
  - [  -0.0003717983199749,  0.0165570080280304, -0.0399024710059166 ]
  - [  -0.0001595655921847,  0.0164979249238968, -0.0399136766791344 ]
  - [  -0.0003701931564137,  0.0164559036493301, -0.0399135202169418 ]
  - [  -0.0005058383103460,  0.0164984837174416, -0.0399091579020023 ]
  - [  -0.0005077997921035,  0.0165138579905033, -0.0399054251611233 ]
  - [  -0.0004074802855030,  0.0165067687630653, -0.0399070754647255 ]