phonopy:
  version: "2.37.1"
  frequency_unit_conversion_factor: 15.633302
  symmetry_tolerance: 1.00000e-05

space_group:
  type: "P1"
  number: 1
  Hall_symbol: "P 1"

primitive_matrix:
- [ -0.000000000000000,  1.000000000000000,  0.000000000000000 ]
- [ -1.000000000000000,  0.000000000000000,  0.000000000000000 ]
- [  0.000000000000000,  0.000000000000000,  1.000000000000000 ]

supercell_matrix:
- [   4,   0,   0 ]
- [   0,   4,   0 ]
- [   0,   0,   3 ]

primitive_cell:
  lattice:
  - [    -0.001264048167093,    -2.759463022302829,     0.000000000000000 ] # a
  - [     2.761483731196300,     0.000000000000000,     0.000000000000000 ] # b
  - [    -0.000885862538929,     0.002463768845189,     4.183343544856464 ] # c
  points:
  - symbol: Li # 1
    coordinates: [  0.959287051111460,  0.178898558020592,  0.720349311828613 ]
    mass: 6.940000
  - symbol: Ga # 2
    coordinates: [  0.459337055683136,  0.678736865520477,  0.219684839248657 ]
    mass: 69.723000
  reciprocal_lattice: # without 2pi
  - [     0.000000000000000,    -0.362389346013225,     0.000213428223373 ] # a*
  - [     0.362124168505165,    -0.000165880965883,     0.000076780910827 ] # b*
  - [     0.000000000000000,    -0.000000000000000,     0.239043241196274 ] # c*

unit_cell:
  lattice:
  - [     2.761483731196300,     0.000000000000000,     0.000000000000000 ] # a
  - [     0.001264048167093,     2.759463022302829,     0.000000000000000 ] # b
  - [    -0.000885862538930,     0.002463768845189,     4.183343544856464 ] # c
  points:
  - symbol: Li # 1
    coordinates: [  0.178898558020592,  0.040712948888540,  0.720349311828613 ]
    mass: 6.940000
    reduced_to: 1
  - symbol: Ga # 2
    coordinates: [  0.678736865520477,  0.540662944316864,  0.219684839248657 ]
    mass: 69.723000
    reduced_to: 2

supercell:
  lattice:
  - [    11.045934924785200,     0.000000000000000,     0.000000000000000 ] # a
  - [     0.005056192668371,    11.037852089211317,     0.000000000000000 ] # b
  - [    -0.002657587616789,     0.007391306535568,    12.550030634569392 ] # c
  points:
  - symbol: Li # 1
    coordinates: [  0.044724639505148,  0.010178237222135,  0.240116437276204 ]
    mass: 6.940000
    reduced_to: 1
  - symbol: Li # 2
    coordinates: [  0.294724639505148,  0.010178237222135,  0.240116437276204 ]
    mass: 6.940000
    reduced_to: 1
  - symbol: Li # 3
    coordinates: [  0.544724639505148,  0.010178237222135,  0.240116437276204 ]
    mass: 6.940000
    reduced_to: 1
  - symbol: Li # 4
    coordinates: [  0.794724639505148,  0.010178237222135,  0.240116437276204 ]
    mass: 6.940000
    reduced_to: 1
  - symbol: Li # 5
    coordinates: [  0.044724639505148,  0.260178237222135,  0.240116437276204 ]
    mass: 6.940000
    reduced_to: 1
  - symbol: Li # 6
    coordinates: [  0.294724639505148,  0.260178237222135,  0.240116437276204 ]
    mass: 6.940000
    reduced_to: 1
  - symbol: Li # 7
    coordinates: [  0.544724639505148,  0.260178237222135,  0.240116437276204 ]
    mass: 6.940000
    reduced_to: 1
  - symbol: Li # 8
    coordinates: [  0.794724639505148,  0.260178237222135,  0.240116437276204 ]
    mass: 6.940000
    reduced_to: 1
  - symbol: Li # 9
    coordinates: [  0.044724639505148,  0.510178237222135,  0.240116437276204 ]
    mass: 6.940000
    reduced_to: 1
  - symbol: Li # 10
    coordinates: [  0.294724639505148,  0.510178237222135,  0.240116437276204 ]
    mass: 6.940000
    reduced_to: 1
  - symbol: Li # 11
    coordinates: [  0.544724639505148,  0.510178237222135,  0.240116437276204 ]
    mass: 6.940000
    reduced_to: 1
  - symbol: Li # 12
    coordinates: [  0.794724639505148,  0.510178237222135,  0.240116437276204 ]
    mass: 6.940000
    reduced_to: 1
  - symbol: Li # 13
    coordinates: [  0.044724639505148,  0.760178237222135,  0.240116437276204 ]
    mass: 6.940000
    reduced_to: 1
  - symbol: Li # 14
    coordinates: [  0.294724639505148,  0.760178237222135,  0.240116437276204 ]
    mass: 6.940000
    reduced_to: 1
  - symbol: Li # 15
    coordinates: [  0.544724639505148,  0.760178237222135,  0.240116437276204 ]
    mass: 6.940000
    reduced_to: 1
  - symbol: Li # 16
    coordinates: [  0.794724639505148,  0.760178237222135,  0.240116437276204 ]
    mass: 6.940000
    reduced_to: 1
  - symbol: Li # 17
    coordinates: [  0.044724639505148,  0.010178237222135,  0.573449770609538 ]
    mass: 6.940000
    reduced_to: 1
  - symbol: Li # 18
    coordinates: [  0.294724639505148,  0.010178237222135,  0.573449770609538 ]
    mass: 6.940000
    reduced_to: 1
  - symbol: Li # 19
    coordinates: [  0.544724639505148,  0.010178237222135,  0.573449770609538 ]
    mass: 6.940000
    reduced_to: 1
  - symbol: Li # 20
    coordinates: [  0.794724639505148,  0.010178237222135,  0.573449770609538 ]
    mass: 6.940000
    reduced_to: 1
  - symbol: Li # 21
    coordinates: [  0.044724639505148,  0.260178237222135,  0.573449770609538 ]
    mass: 6.940000
    reduced_to: 1
  - symbol: Li # 22
    coordinates: [  0.294724639505148,  0.260178237222135,  0.573449770609538 ]
    mass: 6.940000
    reduced_to: 1
  - symbol: Li # 23
    coordinates: [  0.544724639505148,  0.260178237222135,  0.573449770609538 ]
    mass: 6.940000
    reduced_to: 1
  - symbol: Li # 24
    coordinates: [  0.794724639505148,  0.260178237222135,  0.573449770609538 ]
    mass: 6.940000
    reduced_to: 1
  - symbol: Li # 25
    coordinates: [  0.044724639505148,  0.510178237222135,  0.573449770609538 ]
    mass: 6.940000
    reduced_to: 1
  - symbol: Li # 26
    coordinates: [  0.294724639505148,  0.510178237222135,  0.573449770609538 ]
    mass: 6.940000
    reduced_to: 1
  - symbol: Li # 27
    coordinates: [  0.544724639505148,  0.510178237222135,  0.573449770609538 ]
    mass: 6.940000
    reduced_to: 1
  - symbol: Li # 28
    coordinates: [  0.794724639505148,  0.510178237222135,  0.573449770609538 ]
    mass: 6.940000
    reduced_to: 1
  - symbol: Li # 29
    coordinates: [  0.044724639505148,  0.760178237222135,  0.573449770609538 ]
    mass: 6.940000
    reduced_to: 1
  - symbol: Li # 30
    coordinates: [  0.294724639505148,  0.760178237222135,  0.573449770609538 ]
    mass: 6.940000
    reduced_to: 1
  - symbol: Li # 31
    coordinates: [  0.544724639505148,  0.760178237222135,  0.573449770609538 ]
    mass: 6.940000
    reduced_to: 1
  - symbol: Li # 32
    coordinates: [  0.794724639505148,  0.760178237222135,  0.573449770609538 ]
    mass: 6.940000
    reduced_to: 1
  - symbol: Li # 33
    coordinates: [  0.044724639505148,  0.010178237222135,  0.906783103942871 ]
    mass: 6.940000
    reduced_to: 1
  - symbol: Li # 34
    coordinates: [  0.294724639505148,  0.010178237222135,  0.906783103942871 ]
    mass: 6.940000
    reduced_to: 1
  - symbol: Li # 35
    coordinates: [  0.544724639505148,  0.010178237222135,  0.906783103942871 ]
    mass: 6.940000
    reduced_to: 1
  - symbol: Li # 36
    coordinates: [  0.794724639505148,  0.010178237222135,  0.906783103942871 ]
    mass: 6.940000
    reduced_to: 1
  - symbol: Li # 37
    coordinates: [  0.044724639505148,  0.260178237222135,  0.906783103942871 ]
    mass: 6.940000
    reduced_to: 1
  - symbol: Li # 38
    coordinates: [  0.294724639505148,  0.260178237222135,  0.906783103942871 ]
    mass: 6.940000
    reduced_to: 1
  - symbol: Li # 39
    coordinates: [  0.544724639505148,  0.260178237222135,  0.906783103942871 ]
    mass: 6.940000
    reduced_to: 1
  - symbol: Li # 40
    coordinates: [  0.794724639505148,  0.260178237222135,  0.906783103942871 ]
    mass: 6.940000
    reduced_to: 1
  - symbol: Li # 41
    coordinates: [  0.044724639505148,  0.510178237222135,  0.906783103942871 ]
    mass: 6.940000
    reduced_to: 1
  - symbol: Li # 42
    coordinates: [  0.294724639505148,  0.510178237222135,  0.906783103942871 ]
    mass: 6.940000
    reduced_to: 1
  - symbol: Li # 43
    coordinates: [  0.544724639505148,  0.510178237222135,  0.906783103942871 ]
    mass: 6.940000
    reduced_to: 1
  - symbol: Li # 44
    coordinates: [  0.794724639505148,  0.510178237222135,  0.906783103942871 ]
    mass: 6.940000
    reduced_to: 1
  - symbol: Li # 45
    coordinates: [  0.044724639505148,  0.760178237222135,  0.906783103942871 ]
    mass: 6.940000
    reduced_to: 1
  - symbol: Li # 46
    coordinates: [  0.294724639505148,  0.760178237222135,  0.906783103942871 ]
    mass: 6.940000
    reduced_to: 1
  - symbol: Li # 47
    coordinates: [  0.544724639505148,  0.760178237222135,  0.906783103942871 ]
    mass: 6.940000
    reduced_to: 1
  - symbol: Li # 48
    coordinates: [  0.794724639505148,  0.760178237222135,  0.906783103942871 ]
    mass: 6.940000
    reduced_to: 1
  - symbol: Ga # 49
    coordinates: [  0.169684216380119,  0.135165736079216,  0.073228279749552 ]
    mass: 69.723000
    reduced_to: 49
  - symbol: Ga # 50
    coordinates: [  0.419684216380119,  0.135165736079216,  0.073228279749552 ]
    mass: 69.723000
    reduced_to: 49
  - symbol: Ga # 51
    coordinates: [  0.669684216380119,  0.135165736079216,  0.073228279749552 ]
    mass: 69.723000
    reduced_to: 49
  - symbol: Ga # 52
    coordinates: [  0.919684216380119,  0.135165736079216,  0.073228279749552 ]
    mass: 69.723000
    reduced_to: 49
  - symbol: Ga # 53
    coordinates: [  0.169684216380119,  0.385165736079216,  0.073228279749552 ]
    mass: 69.723000
    reduced_to: 49
  - symbol: Ga # 54
    coordinates: [  0.419684216380119,  0.385165736079216,  0.073228279749552 ]
    mass: 69.723000
    reduced_to: 49
  - symbol: Ga # 55
    coordinates: [  0.669684216380119,  0.385165736079216,  0.073228279749552 ]
    mass: 69.723000
    reduced_to: 49
  - symbol: Ga # 56
    coordinates: [  0.919684216380119,  0.385165736079216,  0.073228279749552 ]
    mass: 69.723000
    reduced_to: 49
  - symbol: Ga # 57
    coordinates: [  0.169684216380119,  0.635165736079216,  0.073228279749552 ]
    mass: 69.723000
    reduced_to: 49
  - symbol: Ga # 58
    coordinates: [  0.419684216380119,  0.635165736079216,  0.073228279749552 ]
    mass: 69.723000
    reduced_to: 49
  - symbol: Ga # 59
    coordinates: [  0.669684216380119,  0.635165736079216,  0.073228279749552 ]
    mass: 69.723000
    reduced_to: 49
  - symbol: Ga # 60
    coordinates: [  0.919684216380119,  0.635165736079216,  0.073228279749552 ]
    mass: 69.723000
    reduced_to: 49
  - symbol: Ga # 61
    coordinates: [  0.169684216380119,  0.885165736079216,  0.073228279749552 ]
    mass: 69.723000
    reduced_to: 49
  - symbol: Ga # 62
    coordinates: [  0.419684216380119,  0.885165736079216,  0.073228279749552 ]
    mass: 69.723000
    reduced_to: 49
  - symbol: Ga # 63
    coordinates: [  0.669684216380119,  0.885165736079216,  0.073228279749552 ]
    mass: 69.723000
    reduced_to: 49
  - symbol: Ga # 64
    coordinates: [  0.919684216380119,  0.885165736079216,  0.073228279749552 ]
    mass: 69.723000
    reduced_to: 49
  - symbol: Ga # 65
    coordinates: [  0.169684216380119,  0.135165736079216,  0.406561613082886 ]
    mass: 69.723000
    reduced_to: 49
  - symbol: Ga # 66
    coordinates: [  0.419684216380119,  0.135165736079216,  0.406561613082886 ]
    mass: 69.723000
    reduced_to: 49
  - symbol: Ga # 67
    coordinates: [  0.669684216380119,  0.135165736079216,  0.406561613082886 ]
    mass: 69.723000
    reduced_to: 49
  - symbol: Ga # 68
    coordinates: [  0.919684216380119,  0.135165736079216,  0.406561613082886 ]
    mass: 69.723000
    reduced_to: 49
  - symbol: Ga # 69
    coordinates: [  0.169684216380119,  0.385165736079216,  0.406561613082886 ]
    mass: 69.723000
    reduced_to: 49
  - symbol: Ga # 70
    coordinates: [  0.419684216380119,  0.385165736079216,  0.406561613082886 ]
    mass: 69.723000
    reduced_to: 49
  - symbol: Ga # 71
    coordinates: [  0.669684216380119,  0.385165736079216,  0.406561613082886 ]
    mass: 69.723000
    reduced_to: 49
  - symbol: Ga # 72
    coordinates: [  0.919684216380119,  0.385165736079216,  0.406561613082886 ]
    mass: 69.723000
    reduced_to: 49
  - symbol: Ga # 73
    coordinates: [  0.169684216380119,  0.635165736079216,  0.406561613082886 ]
    mass: 69.723000
    reduced_to: 49
  - symbol: Ga # 74
    coordinates: [  0.419684216380119,  0.635165736079216,  0.406561613082886 ]
    mass: 69.723000
    reduced_to: 49
  - symbol: Ga # 75
    coordinates: [  0.669684216380119,  0.635165736079216,  0.406561613082886 ]
    mass: 69.723000
    reduced_to: 49
  - symbol: Ga # 76
    coordinates: [  0.919684216380119,  0.635165736079216,  0.406561613082886 ]
    mass: 69.723000
    reduced_to: 49
  - symbol: Ga # 77
    coordinates: [  0.169684216380119,  0.885165736079216,  0.406561613082886 ]
    mass: 69.723000
    reduced_to: 49
  - symbol: Ga # 78
    coordinates: [  0.419684216380119,  0.885165736079216,  0.406561613082886 ]
    mass: 69.723000
    reduced_to: 49
  - symbol: Ga # 79
    coordinates: [  0.669684216380119,  0.885165736079216,  0.406561613082886 ]
    mass: 69.723000
    reduced_to: 49
  - symbol: Ga # 80
    coordinates: [  0.919684216380119,  0.885165736079216,  0.406561613082886 ]
    mass: 69.723000
    reduced_to: 49
  - symbol: Ga # 81
    coordinates: [  0.169684216380119,  0.135165736079216,  0.739894946416219 ]
    mass: 69.723000
    reduced_to: 49
  - symbol: Ga # 82
    coordinates: [  0.419684216380119,  0.135165736079216,  0.739894946416219 ]
    mass: 69.723000
    reduced_to: 49
  - symbol: Ga # 83
    coordinates: [  0.669684216380119,  0.135165736079216,  0.739894946416219 ]
    mass: 69.723000
    reduced_to: 49
  - symbol: Ga # 84
    coordinates: [  0.919684216380119,  0.135165736079216,  0.739894946416219 ]
    mass: 69.723000
    reduced_to: 49
  - symbol: Ga # 85
    coordinates: [  0.169684216380119,  0.385165736079216,  0.739894946416219 ]
    mass: 69.723000
    reduced_to: 49
  - symbol: Ga # 86
    coordinates: [  0.419684216380119,  0.385165736079216,  0.739894946416219 ]
    mass: 69.723000
    reduced_to: 49
  - symbol: Ga # 87
    coordinates: [  0.669684216380119,  0.385165736079216,  0.739894946416219 ]
    mass: 69.723000
    reduced_to: 49
  - symbol: Ga # 88
    coordinates: [  0.919684216380119,  0.385165736079216,  0.739894946416219 ]
    mass: 69.723000
    reduced_to: 49
  - symbol: Ga # 89
    coordinates: [  0.169684216380119,  0.635165736079216,  0.739894946416219 ]
    mass: 69.723000
    reduced_to: 49
  - symbol: Ga # 90
    coordinates: [  0.419684216380119,  0.635165736079216,  0.739894946416219 ]
    mass: 69.723000
    reduced_to: 49
  - symbol: Ga # 91
    coordinates: [  0.669684216380119,  0.635165736079216,  0.739894946416219 ]
    mass: 69.723000
    reduced_to: 49
  - symbol: Ga # 92
    coordinates: [  0.919684216380119,  0.635165736079216,  0.739894946416219 ]
    mass: 69.723000
    reduced_to: 49
  - symbol: Ga # 93
    coordinates: [  0.169684216380119,  0.885165736079216,  0.739894946416219 ]
    mass: 69.723000
    reduced_to: 49
  - symbol: Ga # 94
    coordinates: [  0.419684216380119,  0.885165736079216,  0.739894946416219 ]
    mass: 69.723000
    reduced_to: 49
  - symbol: Ga # 95
    coordinates: [  0.669684216380119,  0.885165736079216,  0.739894946416219 ]
    mass: 69.723000
    reduced_to: 49
  - symbol: Ga # 96
    coordinates: [  0.919684216380119,  0.885165736079216,  0.739894946416219 ]
    mass: 69.723000
    reduced_to: 49

displacements:
- atom:    1
  displacement:
    [   0.0100000000000000,  0.0000000000000000,  0.0000000000000000 ]
  forces:
  - [  -0.0275648012757301, -0.0001730363583192, -0.0067049972712994 ]
  - [   0.0059030828997493, -0.0001950254663825, -0.0066780578345060 ]
  - [  -0.0017450726591051, -0.0001943480456248, -0.0066851237788796 ]
  - [   0.0057185580953956, -0.0001948338904185, -0.0066907149739563 ]
  - [  -0.0008909270400181, -0.0002050374168903, -0.0066855172626674 ]
  - [  -0.0003218436031602, -0.0000737961381674, -0.0066833910532296 ]
  - [  -0.0005982620641589, -0.0001937113702297, -0.0066847768612206 ]
  - [  -0.0003328977618366, -0.0003049611113966, -0.0066862911917269 ]
  - [  -0.0008361936197616, -0.0001949717989191, -0.0066850623115897 ]
  - [  -0.0006318269297481, -0.0001940662332345, -0.0066853938624263 ]
  - [  -0.0006624024244957, -0.0001941297377925, -0.0066851344890893 ]
  - [  -0.0006333990022540, -0.0001940994116012, -0.0066851950250566 ]
  - [  -0.0008903206908144, -0.0001769140362740, -0.0066857729107141 ]
  - [  -0.0003167116083205, -0.0003162170469295, -0.0066843172535300 ]
  - [  -0.0005980624700896, -0.0001921215152834, -0.0066851642914116 ]
  - [  -0.0003393338993192, -0.0000867163762450, -0.0066855680197477 ]
  - [  -0.0009377773385495, -0.0001937545603141, -0.0066861854866147 ]
  - [  -0.0004246537573636, -0.0001934541505761, -0.0063808606937528 ]
  - [  -0.0006786116864532, -0.0001938779023476, -0.0066865943372250 ]
  - [  -0.0004294700920582, -0.0001950470323209, -0.0069809956476092 ]
  - [  -0.0006516551366076, -0.0001949985744432, -0.0066871531307697 ]
  - [  -0.0008061504922807, -0.0004180681426078, -0.0070793963968754 ]
  - [  -0.0006293916376308, -0.0001935875043273, -0.0066855479963124 ]
  - [  -0.0008079942781478,  0.0000325371511281, -0.0062881419435143 ]
  - [  -0.0006522806361318, -0.0001938594505191, -0.0066852835007012 ]
  - [  -0.0006490481318906, -0.0001936547341757, -0.0066850851289928 ]
  - [  -0.0006992772687227, -0.0001935472246259, -0.0066846390254796 ]
  - [  -0.0006492260145023, -0.0001941310620168, -0.0066843051463366 ]
  - [  -0.0006518255104311, -0.0001929281279445, -0.0066876672208309 ]
  - [  -0.0008064858848229,  0.0000306429283228, -0.0070814993232489 ]
  - [  -0.0006284380215220, -0.0001940793590620, -0.0066855857148767 ]
  - [  -0.0008077751845121, -0.0004203310236335, -0.0062882928177714 ]
  - [  -0.0009376555681229, -0.0001934394240379, -0.0066829225979745 ]
  - [  -0.0004260466666892, -0.0001942589587998, -0.0069850147701800 ]
  - [  -0.0006784047000110, -0.0001942430972122, -0.0066826897673309 ]
  - [  -0.0004280433058739, -0.0001938492932823, -0.0063865822739899 ]
  - [  -0.0006520219612867, -0.0001953957835212, -0.0066817100159824 ]
  - [  -0.0008066267473623, -0.0004192683845758, -0.0062888660468161 ]
  - [  -0.0006291625322774, -0.0001941536320373, -0.0066838245838881 ]
  - [  -0.0008073350763880,  0.0000318796373904, -0.0070813037455082 ]
  - [  -0.0006522752810270, -0.0001943709794432, -0.0066836774349213 ]
  - [  -0.0006477081915364, -0.0001940202928381, -0.0066838227212429 ]
  - [  -0.0007003409555182, -0.0001940046204254, -0.0066845891997218 ]
  - [  -0.0006486313650385, -0.0001938933128258, -0.0066843451932073 ]
  - [  -0.0006521841860376, -0.0001924661919475, -0.0066816844046116 ]
  - [  -0.0008063829736784,  0.0000311980838887, -0.0062905563972890 ]
  - [  -0.0006293526967056, -0.0001932652667165, -0.0066841472871602 ]
  - [  -0.0008073346689343, -0.0004192208871245, -0.0070789083838463 ]
  - [   0.0019894060678780,  0.0013446379452944,  0.0054536019451916 ]
  - [   0.0011218625586480,  0.0004823640047107,  0.0062038614414632 ]
  - [   0.0011121532879770, -0.0000942905317061,  0.0071608908474445 ]
  - [   0.0019875362049788, -0.0009528025984764,  0.0079027470201254 ]
  - [   0.0007311991066672,  0.0002272413112223,  0.0065392879769206 ]
  - [   0.0006502256728709,  0.0001601482072147,  0.0067023430019617 ]
  - [   0.0006515585118905,  0.0002285856899107,  0.0066676670685410 ]
  - [   0.0007293644594029,  0.0001587284641573,  0.0068314517848194 ]
  - [   0.0007317583076656,  0.0001594447385287,  0.0065406532958150 ]
  - [   0.0006505083292723,  0.0002267429226777,  0.0067027383483946 ]
  - [   0.0006511315586977,  0.0001584381097928,  0.0066678817383945 ]
  - [   0.0007320099975914,  0.0002281679335283,  0.0068300380371511 ]
  - [   0.0019819724839181, -0.0009536035940982,  0.0054560229182243 ]
  - [   0.0011226434726268, -0.0000941987309488,  0.0062058568000793 ]
  - [   0.0011093192733824,  0.0004815840802621,  0.0071588470600545 ]
  - [   0.0019804891198874,  0.0013310593785718,  0.0078874286264181 ]
  - [   0.0020038762595505,  0.0013717702822760,  0.0079451426863670 ]
  - [   0.0011242267210037,  0.0004847689124290,  0.0071643874980509 ]
  - [   0.0011132352519780, -0.0000945955034695,  0.0062118219211698 ]
  - [   0.0020018601790071, -0.0009746893774718,  0.0054446775466204 ]
  - [   0.0007320576114580,  0.0002258121530758,  0.0068298885598779 ]
  - [   0.0006506250356324,  0.0001599637325853,  0.0066671697422862 ]
  - [   0.0006512155523524,  0.0002279209438711,  0.0067020095884800 ]
  - [   0.0007308420026675,  0.0001591968466528,  0.0065389992669225 ]
  - [   0.0007320957956836,  0.0001634151412873,  0.0068312175571918 ]
  - [   0.0006508312653750,  0.0002287644456374,  0.0066671073436737 ]
  - [   0.0006505937781185,  0.0001601659459993,  0.0067021111026406 ]
  - [   0.0007325985934585,  0.0002292618446518,  0.0065382057800889 ]
  - [   0.0020119016990066, -0.0009955106070265,  0.0079587027430534 ]
  - [   0.0011255927383900, -0.0000992051282083,  0.0071653681807220 ]
  - [   0.0011124411830679,  0.0004812586412299,  0.0062111532315612 ]
  - [   0.0020037377253175,  0.0013626686995849,  0.0054445904679596 ]
  - [   0.0006546239601448,  0.0001980178349186,  0.0066839754581451 ]
  - [   0.0006704007973894,  0.0001798018929549,  0.0066841347143054 ]
  - [   0.0006714517367072,  0.0002060897531919,  0.0066843465901911 ]
  - [   0.0006542281480506,  0.0001883528893813,  0.0066840844228864 ]
  - [   0.0006573912105523,  0.0002098083205055,  0.0066840415820479 ]
  - [   0.0006672771414742,  0.0001923887757584,  0.0066843316890299 ]
  - [   0.0006684601539746,  0.0001954312901944,  0.0066840900108218 ]
  - [   0.0006555019645020,  0.0001782169565558,  0.0066842134110630 ]
  - [   0.0006569868419319,  0.0001777101133484,  0.0066844280809164 ]
  - [   0.0006683199317195,  0.0001951423473656,  0.0066844141110778 ]
  - [   0.0006681923987344,  0.0001925918040797,  0.0066840373910964 ]
  - [   0.0006575669976883,  0.0002104641171172,  0.0066844122484326 ]
  - [   0.0006544208154082,  0.0001905921380967,  0.0066845798864961 ]
  - [   0.0006707208231091,  0.0002087844186462,  0.0066845915280282 ]
  - [   0.0006722155958414,  0.0001822407939471,  0.0066842418164015 ]
  - [   0.0006514694541693,  0.0002000316453632,  0.0066845938563347 ]
- atom:    1
  displacement:
    [  -0.0100000000000000,  0.0000000000000000,  0.0000000000000000 ]
  forces:
  - [   0.0262421965599060, -0.0002162245073123, -0.0066685061901808 ]
  - [  -0.0070451344363391, -0.0001936194312293, -0.0066942581906915 ]
  - [   0.0004208571335766, -0.0001940177462529, -0.0066855573095381 ]
  - [  -0.0072297006845474, -0.0001925960823428, -0.0066800261847675 ]
  - [  -0.0004338868893683, -0.0002081879647449, -0.0066846460103989 ]
  - [  -0.0009857326513156, -0.0002992298686877, -0.0066865719854832 ]
  - [  -0.0007267054170370, -0.0001938930945471, -0.0066849258728325 ]
  - [  -0.0010074455058202, -0.0000698566436768, -0.0066839829087257 ]
  - [  -0.0004869227705058, -0.0001934777246788, -0.0066852634772658 ]
  - [  -0.0006929337396286, -0.0001948193821590, -0.0066849556751549 ]
  - [  -0.0006609854754061, -0.0001942631497514, -0.0066851214505732 ]
  - [  -0.0006944108172320, -0.0001946662960108, -0.0066856825724244 ]
  - [  -0.0004333567922004, -0.0001830104738474, -0.0066849198192358 ]
  - [  -0.0009912109235302, -0.0000828351185191, -0.0066863903775811 ]
  - [  -0.0007263555889949, -0.0001929082500283, -0.0066851056180894 ]
  - [  -0.0010030921548605, -0.0003135176375508, -0.0066841882653534 ]
  - [  -0.0003861670556944, -0.0001949955476448, -0.0066858897916973 ]
  - [  -0.0008962589781731, -0.0001942728849826, -0.0069827595725656 ]
  - [  -0.0006476414855570, -0.0001940808142535, -0.0066860523074865 ]
  - [  -0.0008989050984383, -0.0001939136855071, -0.0063828169368207 ]
  - [  -0.0006738771917298, -0.0001942041562870, -0.0066862311214209 ]
  - [  -0.0005169712239876,  0.0000319330720231, -0.0062896022573113 ]
  - [  -0.0006980238249525, -0.0001937157940120, -0.0066856332123280 ]
  - [  -0.0005179204745218, -0.0004183272831142, -0.0070789614692330 ]
  - [  -0.0006710960296914, -0.0001938408240676, -0.0066853468306363 ]
  - [  -0.0006769780302420, -0.0001938153291121, -0.0066840657964349 ]
  - [  -0.0006242669187486, -0.0001935175387189, -0.0066846180707216 ]
  - [  -0.0006772694177926, -0.0001940751099028, -0.0066851843148470 ]
  - [  -0.0006727526197210, -0.0001937588676810, -0.0066856122575700 ]
  - [  -0.0005161321023479, -0.0004208514874335, -0.0062871752306819 ]
  - [  -0.0006965989596210, -0.0001943751703948, -0.0066850101575255 ]
  - [  -0.0005172733217478,  0.0000304803252220, -0.0070811351761222 ]
  - [  -0.0003861384466290, -0.0001947071868926, -0.0066811498254538 ]
  - [  -0.0008952827192843, -0.0001932928280439, -0.0063876062631607 ]
  - [  -0.0006472768727690, -0.0001941349182744, -0.0066823437809944 ]
  - [  -0.0008995300158858, -0.0001944672694663, -0.0069874264299870 ]
  - [  -0.0006727849831805, -0.0001953958999366, -0.0066817351616919 ]
  - [  -0.0005162261659279,  0.0000316683435813, -0.0070794881321490 ]
  - [  -0.0006974742282182, -0.0001940523507074, -0.0066835116595030 ]
  - [  -0.0005167783820070, -0.0004194759530947, -0.0062888264656067 ]
  - [  -0.0006710684974678, -0.0001942132366821, -0.0066837496124208 ]
  - [  -0.0006759613752365, -0.0001940621586982, -0.0066848020069301 ]
  - [  -0.0006256824126467, -0.0001941771479324, -0.0066844010725617 ]
  - [  -0.0006768327439204, -0.0001943756651599, -0.0066833519376814 ]
  - [  -0.0006741321412846, -0.0001929439604282, -0.0066828522831202 ]
  - [  -0.0005163244204596, -0.0004194921057206, -0.0070796888321638 ]
  - [  -0.0006979284225963, -0.0001936869812198, -0.0066842706874013 ]
  - [  -0.0005178684368730,  0.0000311527401209, -0.0062901689670980 ]
  - [  -0.0006608853000216, -0.0009485741611570,  0.0078959492966533 ]
  - [   0.0002129688655259, -0.0000934480995056,  0.0071593681350350 ]
  - [   0.0002000333770411,  0.0004836311272811,  0.0062036598101258 ]
  - [  -0.0006639473140240,  0.0013490596320480,  0.0054465015418828 ]
  - [   0.0005935452645645,  0.0001581932010595,  0.0068317861296237 ]
  - [   0.0006733662448823,  0.0002279945038026,  0.0066672316752374 ]
  - [   0.0006742958212271,  0.0001603830169188,  0.0067033441737294 ]
  - [   0.0005920449621044,  0.0002265130024171,  0.0065390323288739 ]
  - [   0.0005946710007265,  0.0002281061606482,  0.0068303821608424 ]
  - [   0.0006732095498592,  0.0001588632148923,  0.0066669047810137 ]
  - [   0.0006741298711859,  0.0002260539476993,  0.0067032128572464 ]
  - [   0.0005943787982687,  0.0001590505999047,  0.0065402723848820 ]
  - [  -0.0006542411865667,  0.0013358829310164,  0.0078953569754958 ]
  - [   0.0002126317995135,  0.0004828899109270,  0.0071593364700675 ]
  - [   0.0002028640592471, -0.0000932399052544,  0.0062068724073470 ]
  - [  -0.0006548003293574, -0.0009496030397713,  0.0054619354195893 ]
  - [  -0.0006772238994017, -0.0009738059015945,  0.0054453578777611 ]
  - [   0.0002119762066286, -0.0000945458596107,  0.0062124831601977 ]
  - [   0.0002011678152485,  0.0004851501144003,  0.0071626733988523 ]
  - [  -0.0006773860659450,  0.0013724386226386,  0.0079464726150036 ]
  - [   0.0005929472390562,  0.0001590460014995,  0.0065389098599553 ]
  - [   0.0006737957592122,  0.0002272927376907,  0.0067022871226072 ]
  - [   0.0006737163057551,  0.0001603045966476,  0.0066664679907262 ]
  - [   0.0005918706301600,  0.0002255448489450,  0.0068296836689115 ]
  - [   0.0005941796116531,  0.0002287334791617,  0.0065378118306398 ]
  - [   0.0006733062327839,  0.0001604416902410,  0.0067024724557996 ]
  - [   0.0006730008171871,  0.0002278988686157,  0.0066672009415925 ]
  - [   0.0005931335035712,  0.0001633061765460,  0.0068309614434838 ]
  - [  -0.0006827848264948,  0.0013708672486246,  0.0054309479892254 ]
  - [   0.0002089841291308,  0.0004823708732147,  0.0062089292332530 ]
  - [   0.0002025103312917, -0.0000979284086498,  0.0071632750332355 ]
  - [  -0.0006863904418424, -0.0009864747989923,  0.0079466151073575 ]
  - [   0.0006714859046042,  0.0001885599631350,  0.0066842543892562 ]
  - [   0.0006538285524584,  0.0002068160683848,  0.0066844657994807 ]
  - [   0.0006540113827214,  0.0001799725869205,  0.0066840844228864 ]
  - [   0.0006712660542689,  0.0001978557556868,  0.0066835591569543 ]
  - [   0.0006684496765956,  0.0001774509437382,  0.0066839191131294 ]
  - [   0.0006563235656358,  0.0001959744258784,  0.0066845724359155 ]
  - [   0.0006573077989742,  0.0001913049782161,  0.0066840285435319 ]
  - [   0.0006666815024801,  0.0002103289589286,  0.0066841472871602 ]
  - [   0.0006680688820779,  0.0002095038362313,  0.0066841766238213 ]
  - [   0.0006570948753506,  0.0001913984306157,  0.0066849463619292 ]
  - [   0.0006570324767381,  0.0001960741647054,  0.0066836508922279 ]
  - [   0.0006689918227494,  0.0001782324397936,  0.0066844052635133 ]
  - [   0.0006705252453685,  0.0002001303364523,  0.0066846730187535 ]
  - [   0.0006539532914758,  0.0001825898070820,  0.0066845673136413 ]
  - [   0.0006552049890161,  0.0002091062196996,  0.0066842176020145 ]
  - [   0.0006690490990877,  0.0001903918746393,  0.0066842585802078 ]
- atom:    1
  displacement:
    [   0.0000045807754054,  0.0099999989508248,  0.0000000000000000 ]
  forces:
  - [  -0.0006525376811624, -0.0272036194801331, -0.0066358754411340 ]
  - [  -0.0006742002442479, -0.0004224925069138, -0.0066849766299129 ]
  - [  -0.0006630638963543, -0.0003678418579511, -0.0066855791956186 ]
  - [  -0.0006481995806098, -0.0004221781273372, -0.0066841412335634 ]
  - [  -0.0006595368031412,  0.0064136832952499, -0.0066821407526731 ]
  - [  -0.0005423726979643,  0.0001477049663663, -0.0066845589317381 ]
  - [  -0.0006621058564633, -0.0001627075253054, -0.0066854245960712 ]
  - [  -0.0007847225642763,  0.0001527289859951, -0.0066844173707068 ]
  - [  -0.0006624162197113, -0.0012807333841920, -0.0066857025958598 ]