phonopy:
  version: "2.37.1"
  frequency_unit_conversion_factor: 15.633302
  symmetry_tolerance: 1.00000e-05

space_group:
  type: "P1"
  number: 1
  Hall_symbol: "P 1"

primitive_matrix:
- [  1.000000000000000,  0.000000000000000, -0.000000000000000 ]
- [  0.000000000000000,  1.000000000000000, -0.000000000000000 ]
- [  0.000000000000000,  0.000000000000000,  1.000000000000000 ]

supercell_matrix:
- [   2,   0,   0 ]
- [   0,   2,   0 ]
- [   0,   0,   2 ]

primitive_cell:
  lattice:
  - [     6.358762900462424,     0.000000000000000,     0.000000000000000 ] # a
  - [     0.000000301843102,     6.358779938155895,     0.000000000000000 ] # b
  - [     0.000009055629210,     0.000012763022014,     8.758907291804846 ] # c
  points:
  - symbol: Li # 1
    coordinates: [  0.999999915023686,  0.500000008460428,  0.220289146246594 ]
    mass: 6.940000
  - symbol: Li # 2
    coordinates: [  0.500000031184630,  0.000000040578575,  0.779710653789793 ]
    mass: 6.940000
  - symbol: Sn # 3
    coordinates: [  0.162807041805053,  0.337192923406968,  0.808152913748852 ]
    mass: 118.710000
  - symbol: Sn # 4
    coordinates: [  0.337193053207051,  0.837192999463454,  0.191847077539194 ]
    mass: 118.710000
  - symbol: Sn # 5
    coordinates: [  0.837193007874434,  0.662806970267627,  0.808152971059718 ]
    mass: 118.710000
  - symbol: Sn # 6
    coordinates: [  0.662806997611899,  0.162807004280672,  0.191847075304300 ]
    mass: 118.710000
  - symbol: Sn # 7
    coordinates: [  0.250592329609094,  0.750592300044002,  0.521503770258115 ]
    mass: 118.710000
  - symbol: Sn # 8
    coordinates: [  0.750592316854633,  0.749407672175394,  0.478496360255991 ]
    mass: 118.710000
  - symbol: Sn # 9
    coordinates: [  0.749407628256018,  0.249407637223269,  0.521503634197511 ]
    mass: 118.710000
  - symbol: Sn # 10
    coordinates: [  0.249407653180101,  0.250592428606146,  0.478496303118057 ]
    mass: 118.710000
  - symbol: Sn # 11
    coordinates: [  0.000000026328355,  0.999999998220337,  0.000000045473130 ]
    mass: 118.710000
  - symbol: Sn # 12
    coordinates: [  0.499999996369146,  0.500000017871601,  0.000000050583727 ]
    mass: 118.710000
  reciprocal_lattice: # without 2pi
  - [     0.157263294079935,    -0.000000007465086,    -0.000000162590827 ] # a*
  - [     0.000000000000000,     0.157262872709196,    -0.000000229155240 ] # b*
  - [     0.000000000000000,     0.000000000000000,     0.114169492458909 ] # c*

unit_cell:
  lattice:
  - [     6.358762900462422,     0.000000000000000,     0.000000000000000 ] # a
  - [     0.000000301843101,     6.358779938155894,     0.000000000000000 ] # b
  - [     0.000009055629210,     0.000012763022014,     8.758907291804846 ] # c
  points:
  - symbol: Li # 1
    coordinates: [  0.999999915023686,  0.500000008460428,  0.220289146246594 ]
    mass: 6.940000
    reduced_to: 1
  - symbol: Li # 2
    coordinates: [  0.500000031184630,  0.000000040578575,  0.779710653789793 ]
    mass: 6.940000
    reduced_to: 2
  - symbol: Sn # 3
    coordinates: [  0.162807041805053,  0.337192923406968,  0.808152913748852 ]
    mass: 118.710000
    reduced_to: 3
  - symbol: Sn # 4
    coordinates: [  0.337193053207051,  0.837192999463454,  0.191847077539194 ]
    mass: 118.710000
    reduced_to: 4
  - symbol: Sn # 5
    coordinates: [  0.837193007874434,  0.662806970267627,  0.808152971059718 ]
    mass: 118.710000
    reduced_to: 5
  - symbol: Sn # 6
    coordinates: [  0.662806997611899,  0.162807004280672,  0.191847075304300 ]
    mass: 118.710000
    reduced_to: 6
  - symbol: Sn # 7
    coordinates: [  0.250592329609094,  0.750592300044002,  0.521503770258115 ]
    mass: 118.710000
    reduced_to: 7
  - symbol: Sn # 8
    coordinates: [  0.750592316854633,  0.749407672175394,  0.478496360255991 ]
    mass: 118.710000
    reduced_to: 8
  - symbol: Sn # 9
    coordinates: [  0.749407628256018,  0.249407637223269,  0.521503634197511 ]
    mass: 118.710000
    reduced_to: 9
  - symbol: Sn # 10
    coordinates: [  0.249407653180101,  0.250592428606146,  0.478496303118057 ]
    mass: 118.710000
    reduced_to: 10
  - symbol: Sn # 11
    coordinates: [  0.000000026328355,  0.999999998220338,  0.000000045473130 ]
    mass: 118.710000
    reduced_to: 11
  - symbol: Sn # 12
    coordinates: [  0.499999996369146,  0.500000017871601,  0.000000050583727 ]
    mass: 118.710000
    reduced_to: 12

supercell:
  lattice:
  - [    12.717525800924845,     0.000000000000000,     0.000000000000000 ] # a
  - [     0.000000603686203,    12.717559876311787,     0.000000000000000 ] # b
  - [     0.000018111258421,     0.000025526044029,    17.517814583609692 ] # c
  points:
  - symbol: Li # 1
    coordinates: [  0.499999957511843,  0.250000004230214,  0.110144573123297 ]
    mass: 6.940000
    reduced_to: 1
  - symbol: Li # 2
    coordinates: [  0.999999957511843,  0.250000004230214,  0.110144573123297 ]
    mass: 6.940000
    reduced_to: 1
  - symbol: Li # 3
    coordinates: [  0.499999957511843,  0.750000004230214,  0.110144573123297 ]
    mass: 6.940000
    reduced_to: 1
  - symbol: Li # 4
    coordinates: [  0.999999957511843,  0.750000004230214,  0.110144573123297 ]
    mass: 6.940000
    reduced_to: 1
  - symbol: Li # 5
    coordinates: [  0.499999957511843,  0.250000004230214,  0.610144573123297 ]
    mass: 6.940000
    reduced_to: 1
  - symbol: Li # 6
    coordinates: [  0.999999957511843,  0.250000004230214,  0.610144573123297 ]
    mass: 6.940000
    reduced_to: 1
  - symbol: Li # 7
    coordinates: [  0.499999957511843,  0.750000004230214,  0.610144573123297 ]
    mass: 6.940000
    reduced_to: 1
  - symbol: Li # 8
    coordinates: [  0.999999957511843,  0.750000004230214,  0.610144573123297 ]
    mass: 6.940000
    reduced_to: 1
  - symbol: Li # 9
    coordinates: [  0.250000015592315,  0.000000020289287,  0.389855326894897 ]
    mass: 6.940000
    reduced_to: 9
  - symbol: Li # 10
    coordinates: [  0.750000015592315,  0.000000020289287,  0.389855326894897 ]
    mass: 6.940000
    reduced_to: 9
  - symbol: Li # 11
    coordinates: [  0.250000015592315,  0.500000020289287,  0.389855326894897 ]
    mass: 6.940000
    reduced_to: 9
  - symbol: Li # 12
    coordinates: [  0.750000015592315,  0.500000020289287,  0.389855326894897 ]
    mass: 6.940000
    reduced_to: 9
  - symbol: Li # 13
    coordinates: [  0.250000015592315,  0.000000020289287,  0.889855326894897 ]
    mass: 6.940000
    reduced_to: 9
  - symbol: Li # 14
    coordinates: [  0.750000015592315,  0.000000020289287,  0.889855326894897 ]
    mass: 6.940000
    reduced_to: 9
  - symbol: Li # 15
    coordinates: [  0.250000015592315,  0.500000020289287,  0.889855326894897 ]
    mass: 6.940000
    reduced_to: 9
  - symbol: Li # 16
    coordinates: [  0.750000015592315,  0.500000020289287,  0.889855326894897 ]
    mass: 6.940000
    reduced_to: 9
  - symbol: Sn # 17
    coordinates: [  0.081403520902527,  0.168596461703484,  0.404076456874426 ]
    mass: 118.710000
    reduced_to: 17
  - symbol: Sn # 18
    coordinates: [  0.581403520902527,  0.168596461703484,  0.404076456874426 ]
    mass: 118.710000
    reduced_to: 17
  - symbol: Sn # 19
    coordinates: [  0.081403520902527,  0.668596461703484,  0.404076456874426 ]
    mass: 118.710000
    reduced_to: 17
  - symbol: Sn # 20
    coordinates: [  0.581403520902527,  0.668596461703484,  0.404076456874426 ]
    mass: 118.710000
    reduced_to: 17
  - symbol: Sn # 21
    coordinates: [  0.081403520902527,  0.168596461703484,  0.904076456874426 ]
    mass: 118.710000
    reduced_to: 17
  - symbol: Sn # 22
    coordinates: [  0.581403520902527,  0.168596461703484,  0.904076456874426 ]
    mass: 118.710000
    reduced_to: 17
  - symbol: Sn # 23
    coordinates: [  0.081403520902527,  0.668596461703484,  0.904076456874426 ]
    mass: 118.710000
    reduced_to: 17
  - symbol: Sn # 24
    coordinates: [  0.581403520902527,  0.668596461703484,  0.904076456874426 ]
    mass: 118.710000
    reduced_to: 17
  - symbol: Sn # 25
    coordinates: [  0.168596526603525,  0.418596499731727,  0.095923538769597 ]
    mass: 118.710000
    reduced_to: 25
  - symbol: Sn # 26
    coordinates: [  0.668596526603525,  0.418596499731727,  0.095923538769597 ]
    mass: 118.710000
    reduced_to: 25
  - symbol: Sn # 27
    coordinates: [  0.168596526603525,  0.918596499731727,  0.095923538769597 ]
    mass: 118.710000
    reduced_to: 25
  - symbol: Sn # 28
    coordinates: [  0.668596526603525,  0.918596499731727,  0.095923538769597 ]
    mass: 118.710000
    reduced_to: 25
  - symbol: Sn # 29
    coordinates: [  0.168596526603525,  0.418596499731727,  0.595923538769597 ]
    mass: 118.710000
    reduced_to: 25
  - symbol: Sn # 30
    coordinates: [  0.668596526603525,  0.418596499731727,  0.595923538769597 ]
    mass: 118.710000
    reduced_to: 25
  - symbol: Sn # 31
    coordinates: [  0.168596526603525,  0.918596499731727,  0.595923538769597 ]
    mass: 118.710000
    reduced_to: 25
  - symbol: Sn # 32
    coordinates: [  0.668596526603525,  0.918596499731727,  0.595923538769597 ]
    mass: 118.710000
    reduced_to: 25
  - symbol: Sn # 33
    coordinates: [  0.418596503937217,  0.331403485133814,  0.404076485529859 ]
    mass: 118.710000
    reduced_to: 33
  - symbol: Sn # 34
    coordinates: [  0.918596503937217,  0.331403485133814,  0.404076485529859 ]
    mass: 118.710000
    reduced_to: 33
  - symbol: Sn # 35
    coordinates: [  0.418596503937217,  0.831403485133813,  0.404076485529859 ]
    mass: 118.710000
    reduced_to: 33
  - symbol: Sn # 36
    coordinates: [  0.918596503937217,  0.831403485133813,  0.404076485529859 ]
    mass: 118.710000
    reduced_to: 33
  - symbol: Sn # 37
    coordinates: [  0.418596503937217,  0.331403485133814,  0.904076485529859 ]
    mass: 118.710000
    reduced_to: 33
  - symbol: Sn # 38
    coordinates: [  0.918596503937217,  0.331403485133814,  0.904076485529859 ]
    mass: 118.710000
    reduced_to: 33
  - symbol: Sn # 39
    coordinates: [  0.418596503937217,  0.831403485133813,  0.904076485529859 ]
    mass: 118.710000
    reduced_to: 33
  - symbol: Sn # 40
    coordinates: [  0.918596503937217,  0.831403485133813,  0.904076485529859 ]
    mass: 118.710000
    reduced_to: 33
  - symbol: Sn # 41
    coordinates: [  0.331403498805950,  0.081403502140336,  0.095923537652150 ]
    mass: 118.710000
    reduced_to: 41
  - symbol: Sn # 42
    coordinates: [  0.831403498805950,  0.081403502140336,  0.095923537652150 ]
    mass: 118.710000
    reduced_to: 41
  - symbol: Sn # 43
    coordinates: [  0.331403498805950,  0.581403502140336,  0.095923537652150 ]
    mass: 118.710000
    reduced_to: 41
  - symbol: Sn # 44
    coordinates: [  0.831403498805950,  0.581403502140336,  0.095923537652150 ]
    mass: 118.710000
    reduced_to: 41
  - symbol: Sn # 45
    coordinates: [  0.331403498805950,  0.081403502140336,  0.595923537652150 ]
    mass: 118.710000
    reduced_to: 41
  - symbol: Sn # 46
    coordinates: [  0.831403498805950,  0.081403502140336,  0.595923537652150 ]
    mass: 118.710000
    reduced_to: 41
  - symbol: Sn # 47
    coordinates: [  0.331403498805950,  0.581403502140336,  0.595923537652150 ]
    mass: 118.710000
    reduced_to: 41
  - symbol: Sn # 48
    coordinates: [  0.831403498805950,  0.581403502140336,  0.595923537652150 ]
    mass: 118.710000
    reduced_to: 41
  - symbol: Sn # 49
    coordinates: [  0.125296164804547,  0.375296150022001,  0.260751885129058 ]
    mass: 118.710000
    reduced_to: 49
  - symbol: Sn # 50
    coordinates: [  0.625296164804547,  0.375296150022001,  0.260751885129058 ]
    mass: 118.710000
    reduced_to: 49
  - symbol: Sn # 51
    coordinates: [  0.125296164804547,  0.875296150022001,  0.260751885129058 ]
    mass: 118.710000
    reduced_to: 49
  - symbol: Sn # 52
    coordinates: [  0.625296164804547,  0.875296150022001,  0.260751885129058 ]
    mass: 118.710000
    reduced_to: 49
  - symbol: Sn # 53
    coordinates: [  0.125296164804547,  0.375296150022001,  0.760751885129058 ]
    mass: 118.710000
    reduced_to: 49
  - symbol: Sn # 54
    coordinates: [  0.625296164804547,  0.375296150022001,  0.760751885129058 ]
    mass: 118.710000
    reduced_to: 49
  - symbol: Sn # 55
    coordinates: [  0.125296164804547,  0.875296150022001,  0.760751885129058 ]
    mass: 118.710000
    reduced_to: 49
  - symbol: Sn # 56
    coordinates: [  0.625296164804547,  0.875296150022001,  0.760751885129058 ]
    mass: 118.710000
    reduced_to: 49
  - symbol: Sn # 57
    coordinates: [  0.375296158427316,  0.374703836087697,  0.239248180127996 ]
    mass: 118.710000
    reduced_to: 57
  - symbol: Sn # 58
    coordinates: [  0.875296158427316,  0.374703836087697,  0.239248180127996 ]
    mass: 118.710000
    reduced_to: 57
  - symbol: Sn # 59
    coordinates: [  0.375296158427316,  0.874703836087697,  0.239248180127996 ]
    mass: 118.710000
    reduced_to: 57
  - symbol: Sn # 60
    coordinates: [  0.875296158427316,  0.874703836087697,  0.239248180127996 ]
    mass: 118.710000
    reduced_to: 57
  - symbol: Sn # 61
    coordinates: [  0.375296158427316,  0.374703836087697,  0.739248180127996 ]
    mass: 118.710000
    reduced_to: 57
  - symbol: Sn # 62
    coordinates: [  0.875296158427316,  0.374703836087697,  0.739248180127996 ]
    mass: 118.710000
    reduced_to: 57
  - symbol: Sn # 63
    coordinates: [  0.375296158427316,  0.874703836087697,  0.739248180127996 ]
    mass: 118.710000
    reduced_to: 57
  - symbol: Sn # 64
    coordinates: [  0.875296158427316,  0.874703836087697,  0.739248180127996 ]
    mass: 118.710000
    reduced_to: 57
  - symbol: Sn # 65
    coordinates: [  0.374703814128009,  0.124703818611635,  0.260751817098755 ]
    mass: 118.710000
    reduced_to: 65
  - symbol: Sn # 66
    coordinates: [  0.874703814128009,  0.124703818611635,  0.260751817098755 ]
    mass: 118.710000
    reduced_to: 65
  - symbol: Sn # 67
    coordinates: [  0.374703814128009,  0.624703818611635,  0.260751817098755 ]
    mass: 118.710000
    reduced_to: 65
  - symbol: Sn # 68
    coordinates: [  0.874703814128009,  0.624703818611635,  0.260751817098755 ]
    mass: 118.710000
    reduced_to: 65
  - symbol: Sn # 69
    coordinates: [  0.374703814128009,  0.124703818611635,  0.760751817098755 ]
    mass: 118.710000
    reduced_to: 65
  - symbol: Sn # 70
    coordinates: [  0.874703814128009,  0.124703818611635,  0.760751817098755 ]
    mass: 118.710000
    reduced_to: 65
  - symbol: Sn # 71
    coordinates: [  0.374703814128009,  0.624703818611635,  0.760751817098755 ]
    mass: 118.710000
    reduced_to: 65
  - symbol: Sn # 72
    coordinates: [  0.874703814128009,  0.624703818611635,  0.760751817098755 ]
    mass: 118.710000
    reduced_to: 65
  - symbol: Sn # 73
    coordinates: [  0.124703826590050,  0.125296214303073,  0.239248151559029 ]
    mass: 118.710000
    reduced_to: 73
  - symbol: Sn # 74
    coordinates: [  0.624703826590050,  0.125296214303073,  0.239248151559029 ]
    mass: 118.710000
    reduced_to: 73
  - symbol: Sn # 75
    coordinates: [  0.124703826590050,  0.625296214303073,  0.239248151559029 ]
    mass: 118.710000
    reduced_to: 73
  - symbol: Sn # 76
    coordinates: [  0.624703826590050,  0.625296214303073,  0.239248151559029 ]
    mass: 118.710000
    reduced_to: 73
  - symbol: Sn # 77
    coordinates: [  0.124703826590050,  0.125296214303073,  0.739248151559029 ]
    mass: 118.710000
    reduced_to: 73
  - symbol: Sn # 78
    coordinates: [  0.624703826590050,  0.125296214303073,  0.739248151559029 ]
    mass: 118.710000
    reduced_to: 73
  - symbol: Sn # 79
    coordinates: [  0.124703826590050,  0.625296214303073,  0.739248151559029 ]
    mass: 118.710000
    reduced_to: 73
  - symbol: Sn # 80
    coordinates: [  0.624703826590050,  0.625296214303073,  0.739248151559029 ]
    mass: 118.710000
    reduced_to: 73
  - symbol: Sn # 81
    coordinates: [  0.000000013164178,  0.499999999110169,  0.000000022736565 ]
    mass: 118.710000
    reduced_to: 81
  - symbol: Sn # 82
    coordinates: [  0.500000013164178,  0.499999999110169,  0.000000022736565 ]
    mass: 118.710000
    reduced_to: 81
  - symbol: Sn # 83
    coordinates: [  0.000000013164178,  0.999999999110169,  0.000000022736565 ]
    mass: 118.710000
    reduced_to: 81
  - symbol: Sn # 84
    coordinates: [  0.500000013164178,  0.999999999110169,  0.000000022736565 ]
    mass: 118.710000
    reduced_to: 81
  - symbol: Sn # 85
    coordinates: [  0.000000013164178,  0.499999999110169,  0.500000022736565 ]
    mass: 118.710000
    reduced_to: 81
  - symbol: Sn # 86
    coordinates: [  0.500000013164178,  0.499999999110169,  0.500000022736565 ]
    mass: 118.710000
    reduced_to: 81
  - symbol: Sn # 87
    coordinates: [  0.000000013164178,  0.999999999110169,  0.500000022736565 ]
    mass: 118.710000
    reduced_to: 81
  - symbol: Sn # 88
    coordinates: [  0.500000013164178,  0.999999999110169,  0.500000022736565 ]
    mass: 118.710000
    reduced_to: 81
  - symbol: Sn # 89
    coordinates: [  0.249999998184573,  0.250000008935801,  0.000000025291864 ]
    mass: 118.710000
    reduced_to: 89
  - symbol: Sn # 90
    coordinates: [  0.749999998184573,  0.250000008935801,  0.000000025291864 ]
    mass: 118.710000
    reduced_to: 89
  - symbol: Sn # 91
    coordinates: [  0.249999998184573,  0.750000008935801,  0.000000025291864 ]
    mass: 118.710000
    reduced_to: 89
  - symbol: Sn # 92
    coordinates: [  0.749999998184573,  0.750000008935801,  0.000000025291864 ]
    mass: 118.710000
    reduced_to: 89
  - symbol: Sn # 93
    coordinates: [  0.249999998184573,  0.250000008935801,  0.500000025291864 ]
    mass: 118.710000
    reduced_to: 89
  - symbol: Sn # 94
    coordinates: [  0.749999998184573,  0.250000008935801,  0.500000025291864 ]
    mass: 118.710000
    reduced_to: 89
  - symbol: Sn # 95
    coordinates: [  0.249999998184573,  0.750000008935801,  0.500000025291864 ]
    mass: 118.710000
    reduced_to: 89
  - symbol: Sn # 96
    coordinates: [  0.749999998184573,  0.750000008935801,  0.500000025291864 ]
    mass: 118.710000
    reduced_to: 89

displacements:
- atom:    1
  displacement:
    [   0.0100000000000000,  0.0000000000000000,  0.0000000000000000 ]
  forces:
  - [  -0.0125961648300290, -0.0028370087966323, -0.0452135354280472 ]
  - [  -0.0001346357166767,  0.0000010114163160, -0.0451314896345139 ]
  - [  -0.0000303881242871,  0.0000022850872483, -0.0451283752918243 ]
  - [   0.0002997586270794,  0.0002893933560699, -0.0451322495937347 ]
  - [  -0.0000063935294747,  0.0000064832856879, -0.0451304540038109 ]
  - [   0.0000014640972950, -0.0000019546132535, -0.0451266765594482 ]
  - [   0.0000025114859454,  0.0000004683097359, -0.0451311394572258 ]
  - [   0.0000001869630069,  0.0000014098186512, -0.0451275929808617 ]
  - [   0.0000984754879028,  0.0000678032811265,  0.0450658947229385 ]
  - [   0.0000965560902841, -0.0000631548464298,  0.0451276972889900 ]
  - [   0.0000964118225966, -0.0000620550126769,  0.0451359078288078 ]
  - [   0.0000974410795607,  0.0000644277897663,  0.0451978445053101 ]
  - [  -0.0000281853135675, -0.0000529973622179,  0.0451170504093170 ]
  - [  -0.0000299887615256,  0.0000507470685989,  0.0451862588524818 ]
  - [  -0.0000313596101478,  0.0000481307506561,  0.0450758114457130 ]
  - [  -0.0000278337975033, -0.0000496431603096,  0.0451431870460510 ]
  - [   0.0041044903919101, -0.0041236123070121, -0.0142386555671692 ]
  - [   0.0039196209982038, -0.0038945050910115, -0.0143144074827433 ]
  - [   0.0040998742915690, -0.0041201850399375, -0.0142464619129896 ]
  - [   0.0041331397369504, -0.0041282740421593, -0.0142781678587198 ]
  - [   0.0043212338350713, -0.0039087883196771, -0.0140596572309732 ]
  - [   0.0044152410700917, -0.0041794776916504, -0.0149403968825936 ]
  - [   0.0041074054315686, -0.0041584181599319, -0.0142530007287860 ]
  - [   0.0041575226932764, -0.0042350352741778, -0.0141392182558775 ]
  - [  -0.0034468751400709, -0.0044107739813626,  0.0142646003514528 ]
  - [  -0.0015032484661788, -0.0004184581339359,  0.0126947052776814 ]
  - [  -0.0042093228548765, -0.0043540359474719,  0.0140409870073199 ]
  - [  -0.0038574151694775, -0.0045249694958329,  0.0142563693225384 ]
  - [  -0.0041222390718758, -0.0041199894621968,  0.0142641905695200 ]
  - [  -0.0041055013425648, -0.0041453372687101,  0.0142556615173817 ]
  - [  -0.0041194288060069, -0.0041283550672233,  0.0142667740583420 ]
  - [  -0.0041313692927361, -0.0041278069838881,  0.0142637267708778 ]
  - [  -0.0043159481137991,  0.0043570045381784, -0.0142146572470665 ]
  - [  -0.0041311853565276,  0.0041338000446558, -0.0142928138375282 ]
  - [  -0.0041042268276215,  0.0041250940412283, -0.0142454495653510 ]
  - [  -0.0041415756568313,  0.0041291168890893, -0.0142826745286584 ]
  - [  -0.0038217469118536,  0.0040715038776398, -0.0136051829904318 ]
  - [  -0.0039147776551545,  0.0043483562767506, -0.0144603643566370 ]
  - [  -0.0040760091505945,  0.0040208036080003, -0.0143768964335322 ]
  - [  -0.0041287699714303,  0.0040952991694212, -0.0142588652670383 ]
  - [   0.0066695180721581,  0.0077231442555785,  0.0158235356211662 ]
  - [   0.0047851158306003,  0.0038447408005595,  0.0142621994018555 ]
  - [   0.0043785781599581,  0.0037266872823238,  0.0142646459862590 ]
  - [   0.0040255980566144,  0.0038956250064075,  0.0144883552566171 ]
  - [   0.0041345199570060,  0.0041114999912679,  0.0142699126154184 ]
  - [   0.0041136667132378,  0.0041336030699313,  0.0142695698887110 ]
  - [   0.0041057127527893,  0.0041328226216137,  0.0142653463408351 ]
  - [   0.0041152830235660,  0.0041255331598222,  0.0142687596380711 ]
  - [   0.0087494654580951,  0.0093311211094260,  0.0091713517904282 ]
  - [   0.0096353823319077,  0.0098194256424904,  0.0104018226265907 ]
  - [   0.0093175414949656,  0.0093200439587235,  0.0088486596941948 ]
  - [   0.0093762697651982,  0.0096466653048992,  0.0091003626585007 ]
  - [   0.0093234116211534,  0.0093502942472696,  0.0091058984398842 ]
  - [   0.0093289874494076,  0.0093167349696159,  0.0091392844915390 ]
  - [   0.0093252323567867,  0.0093236984685063,  0.0091071724891663 ]
  - [   0.0093144420534372,  0.0093071442097425,  0.0091051086783409 ]
  - [   0.0107311438769102, -0.0108977816998959, -0.0100893676280975 ]
  - [   0.0093523515388370, -0.0093101952224970, -0.0089611411094666 ]
  - [   0.0092681031674147, -0.0094368262216449, -0.0092086642980576 ]
  - [   0.0092943385243416, -0.0093927057459950, -0.0091244429349899 ]
  - [   0.0093246577307582, -0.0093263946473598, -0.0090353265404701 ]
  - [   0.0093146003782749, -0.0093169845640659, -0.0091263800859451 ]
  - [   0.0093241371214390, -0.0093238027766347, -0.0091334953904152 ]
  - [   0.0093237133696675, -0.0093234647065401, -0.0091191679239273 ]
  - [  -0.0090080127120018, -0.0088339392095804,  0.0078432187438011 ]
  - [  -0.0098998434841633, -0.0093139372766018,  0.0090562850236893 ]
  - [  -0.0092671597376466, -0.0090036364272237,  0.0091332197189331 ]
  - [  -0.0093283550813794, -0.0093264002352953,  0.0093842819333076 ]
  - [  -0.0093145910650492, -0.0093295630067587,  0.0090875700116158 ]
  - [  -0.0093248840421438, -0.0092970877885818,  0.0091185346245766 ]
  - [  -0.0093297353014350, -0.0093336980789900,  0.0091200396418571 ]
  - [  -0.0093228267505765, -0.0093238558620214,  0.0091152563691139 ]
  - [  -0.0092960726469755,  0.0093362769111991, -0.0092618316411972 ]
  - [  -0.0078980028629303,  0.0077075920999050, -0.0081076994538307 ]
  - [  -0.0093533266335726,  0.0092507777735591, -0.0091064870357513 ]
  - [  -0.0093801748007536,  0.0092112254351377, -0.0090201944112778 ]
  - [  -0.0093344878405333,  0.0093311602249742, -0.0091089084744453 ]
  - [  -0.0093248672783375,  0.0093203261494637, -0.0091961622238159 ]
  - [  -0.0093227578327060,  0.0093176653608680, -0.0091129615902901 ]
  - [  -0.0093209668993950,  0.0093205226585269, -0.0091019496321678 ]
  - [   0.0001887627877295, -0.0001241839490831, -0.0001523155369796 ]
  - [  -0.0000530839897692,  0.0000924479681998, -0.0001925055985339 ]
  - [   0.0001864884980023, -0.0001343684270978,  0.0001196641824208 ]
  - [  -0.0000560709740967,  0.0000923064653762,  0.0001625309814699 ]
  - [   0.0000020053703338, -0.0000201561488211, -0.0000171344727278 ]
  - [  -0.0000257384963334, -0.0000550635741092, -0.0000666425330564 ]
  - [   0.0000035123084672, -0.0000162986107171, -0.0000097071751952 ]
  - [  -0.0000291727483273, -0.0000594679731876,  0.0000435749534518 ]
  - [   0.0013234149664640, -0.0008037341758609,  0.0006477222195826 ]
  - [   0.0011933802161366, -0.0008323923684657, -0.0005559122073464 ]
  - [  -0.0001447289250791,  0.0001137061044574,  0.0002028923045145 ]
  - [  -0.0001436521997675,  0.0001230032648891, -0.0001919324859045 ]
  - [   0.0000222176313400,  0.0000181952491403, -0.0000209733843803 ]
  - [   0.0000209513818845,  0.0000233049504459,  0.0000458089634776 ]
  - [  -0.0000158399343491, -0.0000067809596658,  0.0000082901678979 ]
  - [  -0.0000149348052219,  0.0000071689719334,  0.0000122655183077 ]
- atom:    1
  displacement:
    [  -0.0100000000000000,  0.0000000000000000,  0.0000000000000000 ]
  forces:
  - [   0.0125960651785135,  0.0028377745766193, -0.0452143177390099 ]
  - [   0.0001362045295537, -0.0000052271061577, -0.0451316013932228 ]
  - [   0.0000322043779306, -0.0000040208105929, -0.0451283454895020 ]
  - [  -0.0002998958225362, -0.0002897696685977, -0.0451314970850945 ]
  - [   0.0000105511280708, -0.0000087300431915, -0.0451300740242004 ]
  - [  -0.0000021308078431,  0.0000003036402632, -0.0451273173093796 ]
  - [   0.0000018981518224,  0.0000031267118175, -0.0451319068670273 ]
  - [   0.0000010351068340,  0.0000011998636182, -0.0451274886727333 ]
  - [  -0.0000927856308408, -0.0000613366064499,  0.0451970398426056 ]
  - [  -0.0000939306337386,  0.0000653825700283,  0.0451346412301064 ]
  - [  -0.0000946376239881,  0.0000655595213175,  0.0451287850737572 ]
  - [  -0.0000946409709286, -0.0000643506646156,  0.0450657755136490 ]
  - [   0.0000299900420941,  0.0000470490122098,  0.0451462566852570 ]
  - [   0.0000278106599580, -0.0000489873345941,  0.0450752228498459 ]
  - [   0.0000264708651230, -0.0000525174546055,  0.0451867505908012 ]
  - [   0.0000302995904349,  0.0000508821103722,  0.0451134145259857 ]
  - [   0.0041451351717114, -0.0041170697659254, -0.0142916273325682 ]
  - [   0.0043312413617969, -0.0043408600613475, -0.0142152924090624 ]
  - [   0.0041561187244952, -0.0041146073490381, -0.0142806861549616 ]
  - [   0.0041199531406164, -0.0041102198883891, -0.0142460502684116 ]
  - [   0.0039289416745305, -0.0043278988450766, -0.0144502017647028 ]
  - [   0.0038410509005189, -0.0040540904738009, -0.0136036779731512 ]
  - [   0.0041475594043732, -0.0040757246315479, -0.0142525322735310 ]
  - [   0.0040943296626210, -0.0040010097436607, -0.0143715841695666 ]
  - [  -0.0047866427339613, -0.0038487073034048,  0.0142558775842190 ]
  - [  -0.0066737653687596, -0.0077240774407983,  0.0158240832388401 ]
  - [  -0.0040260851383209, -0.0039000464603305,  0.0144810564815998 ]
  - [  -0.0043805539608002, -0.0037282006815076,  0.0142572484910488 ]
  - [  -0.0041118082590401, -0.0041398922912776,  0.0142605416476727 ]
  - [  -0.0041356449946761, -0.0041162371635437,  0.0142609030008316 ]
  - [  -0.0041176425293088, -0.0041312756948173,  0.0142665468156338 ]
  - [  -0.0041088759899139, -0.0041393470019102,  0.0142617113888264 ]
  - [  -0.0039049403276294,  0.0039103971794248, -0.0143137592822313 ]
  - [  -0.0040890909731388,  0.0041408375836909, -0.0142404604703188 ]
  - [  -0.0041164974682033,  0.0041438750922680, -0.0142769208177924 ]
  - [  -0.0040854373946786,  0.0041364636272192, -0.0142477825284004 ]
  - [  -0.0043969592079520,  0.0041969772428274, -0.0149417724460363 ]
  - [  -0.0043089017271996,  0.0039303470402956, -0.0140694398432970 ]
  - [  -0.0041394950821996,  0.0042556254193187, -0.0141448425129056 ]
  - [  -0.0040890811942518,  0.0041785044595599, -0.0142592452466488 ]
  - [   0.0014996414538473,  0.0004156990908086,  0.0126960510388017 ]
  - [   0.0034457554575056,  0.0044082300737500,  0.0142701966688037 ]
  - [   0.0038550002500415,  0.0045243995264173,  0.0142644643783569 ]
  - [   0.0042088697664440,  0.0043494654819369,  0.0140481535345316 ]
  - [   0.0041047148406506,  0.0041407123208046,  0.0142655707895756 ]
  - [   0.0041236351244152,  0.0041140178218484,  0.0142728965729475 ]
  - [   0.0041284002363682,  0.0041213128715754,  0.0142670553177595 ]
  - [   0.0041171577759087,  0.0041227824985981,  0.0142695605754852 ]
  - [   0.0099011035636067,  0.0093200206756592,  0.0090558230876923 ]
  - [   0.0090072341263294,  0.0088375462219119,  0.0078437551856041 ]
  - [   0.0093292174860835,  0.0093302829191089,  0.0093807280063629 ]
  - [   0.0092706158757210,  0.0090084429830313,  0.0091290920972824 ]
  - [   0.0093251280486584,  0.0093013811856508,  0.0091213658452034 ]
  - [   0.0093128830194473,  0.0093342699110508,  0.0090911760926247 ]
  - [   0.0093221031129360,  0.0093271574005485,  0.0091203078627586 ]
  - [   0.0093300258740783,  0.0093370284885168,  0.0091240704059601 ]
  - [   0.0078956345096231, -0.0077106961980462, -0.0081093981862068 ]
  - [   0.0092970803380013, -0.0093418154865503, -0.0092608556151390 ]
  - [   0.0093791158869863, -0.0092135053128004, -0.0090211406350136 ]
  - [   0.0093521047383547, -0.0092522501945496, -0.0091062188148499 ]
  - [   0.0093239359557629, -0.0093272281810641, -0.0091920867562294 ]
  - [   0.0093392441049218, -0.0093349236994982, -0.0090998709201813 ]
  - [   0.0093191061168909, -0.0093234274536371, -0.0091009810566902 ]
  - [   0.0093247536569834, -0.0093246465548873, -0.0091073364019394 ]
  - [  -0.0096363350749016, -0.0098150400444865,  0.0104019641876221 ]
  - [  -0.0087477713823318, -0.0093247499316931,  0.0091715976595879 ]
  - [  -0.0093729840591550, -0.0096418121829629,  0.0091047734022141 ]
  - [  -0.0093161780387163, -0.0093170534819365,  0.0088524445891380 ]
  - [  -0.0093304617330432, -0.0093117924407125,  0.0091354399919510 ]