# Thermal properties / unit cell (natom)

unit:
  temperature:   K
  free_energy:   kJ/mol
  entropy:       J/K/mol
  heat_capacity: J/K/mol

natom: 15   
cutoff_frequency: 0.00000
num_modes: 180180
num_integrated_modes: 178245

zero_point_energy:      45.4471131

thermal_properties:
- temperature:         0.0000000
  free_energy:        45.4471131
  entropy:             0.0000000
  heat_capacity:       0.0000000
  energy:             45.4471131

- temperature:        10.0000000
  free_energy:        45.4393119
  entropy:             2.7200246
  heat_capacity:       7.4002753
  energy:             45.4665121

- temperature:        20.0000000
  free_energy:        45.3527045
  entropy:            16.6859862
  heat_capacity:      39.4042234
  energy:             45.6864242

- temperature:        30.0000000
  free_energy:        45.0753821
  entropy:            39.6875962
  heat_capacity:      75.6781157
  energy:             46.2660099

- temperature:        40.0000000
  free_energy:        44.5493918
  entropy:            65.6925839
  heat_capacity:     105.4757822
  energy:             47.1770952

- temperature:        50.0000000
  free_energy:        43.7608024
  entropy:            91.9780598
  heat_capacity:     130.5086433
  energy:             48.3597054

- temperature:        60.0000000
  free_energy:        42.7114079
  entropy:           117.8068342
  heat_capacity:     153.2454286
  energy:             49.7798180

- temperature:        70.0000000
  free_energy:        41.4066322
  entropy:           143.0477498
  heat_capacity:     174.5625476
  energy:             51.4199747

- temperature:        80.0000000
  free_energy:        39.8525036
  entropy:           167.6729057
  heat_capacity:     194.4547545
  energy:             53.2663361

- temperature:        90.0000000
  free_energy:        38.0553418
  entropy:           191.6474330
  heat_capacity:     212.7125048
  energy:             55.3036108

- temperature:       100.0000000
  free_energy:        36.0218689
  entropy:           214.9279623
  heat_capacity:     229.1983577
  energy:             57.5146652

- temperature:       110.0000000
  free_energy:        33.7592248
  entropy:           237.4762823
  heat_capacity:     243.8988443
  energy:             59.8816159

- temperature:       120.0000000
  free_energy:        31.2748689
  entropy:           259.2674445
  heat_capacity:     256.8972113
  energy:             62.3869622

- temperature:       130.0000000
  free_energy:        28.5764340
  entropy:           280.2916528
  heat_capacity:     268.3329426
  energy:             65.0143488

- temperature:       140.0000000
  free_energy:        25.6715809
  entropy:           300.5526831
  heat_capacity:     278.3693823
  energy:             67.7489566

- temperature:       150.0000000
  free_energy:        22.5678769
  entropy:           320.0650030
  heat_capacity:     287.1727510
  energy:             70.5776273

- temperature:       160.0000000
  free_energy:        19.2727033
  entropy:           338.8507753
  heat_capacity:     294.9003373
  energy:             73.4888273

- temperature:       170.0000000
  free_energy:        15.7931927
  entropy:           356.9372529
  heat_capacity:     301.6948472
  energy:             76.4725257

- temperature:       180.0000000
  free_energy:        12.1361884
  entropy:           374.3547115
  heat_capacity:     307.6824811
  energy:             79.5200365

- temperature:       190.0000000
  free_energy:         8.3082227
  entropy:           391.1348991
  heat_capacity:     312.9730856
  energy:             82.6238535

- temperature:       200.0000000
  free_energy:         4.3155076
  entropy:           407.3099215
  heat_capacity:     317.6613459
  energy:             85.7774919

- temperature:       210.0000000
  free_energy:         0.1639358
  entropy:           422.9114701
  heat_capacity:     321.8284135
  energy:             88.9753445

- temperature:       220.0000000
  free_energy:        -4.1409129
  entropy:           437.9703093
  heat_capacity:     325.5436328
  energy:             92.2125551

- temperature:       230.0000000
  free_energy:        -8.5937599
  entropy:           452.5159528
  heat_capacity:     328.8661919
  energy:             95.4849092

- temperature:       240.0000000
  free_energy:       -13.1896151
  entropy:           466.5764767
  heat_capacity:     331.8466188
  energy:             98.7887394

- temperature:       250.0000000
  free_energy:       -17.9237611
  entropy:           480.1784274
  heat_capacity:     334.5280945
  energy:            102.1208458

- temperature:       260.0000000
  free_energy:       -22.7917385
  entropy:           493.3467963
  heat_capacity:     336.9475847
  energy:            105.4784285

- temperature:       270.0000000
  free_energy:       -27.7893301
  entropy:           506.1050387
  heat_capacity:     339.1368023
  energy:            108.8590304

- temperature:       280.0000000
  free_energy:       -32.9125456
  entropy:           518.4751211
  heat_capacity:     341.1230199
  energy:            112.2604883

- temperature:       290.0000000
  free_energy:       -38.1576073
  entropy:           530.4775866
  heat_capacity:     342.9297538
  energy:            115.6808929

- temperature:       300.0000000
  free_energy:       -43.5209360
  entropy:           542.1316308
  heat_capacity:     344.5773374
  energy:            119.1185532

- temperature:       310.0000000
  free_energy:       -48.9991384
  entropy:           553.4551822
  heat_capacity:     346.0834012
  energy:            122.5719681

- temperature:       320.0000000
  free_energy:       -54.5889940
  entropy:           564.4649837
  heat_capacity:     347.4632761
  energy:            126.0398008

- temperature:       330.0000000
  free_energy:       -60.2874444
  entropy:           575.1766734
  heat_capacity:     348.7303312
  energy:            129.5208578

- temperature:       340.0000000
  free_energy:       -66.0915825
  entropy:           585.6048619
  heat_capacity:     349.8962574
  energy:            133.0140705

- temperature:       350.0000000
  free_energy:       -71.9986423
  entropy:           595.7632070
  heat_capacity:     350.9713069
  energy:            136.5184801

- temperature:       360.0000000
  free_energy:       -78.0059899
  entropy:           605.6644827
  heat_capacity:     351.9644946
  energy:            140.0332239

- temperature:       370.0000000
  free_energy:       -84.1111150
  entropy:           615.3206452
  heat_capacity:     352.8837683
  energy:            143.5575237

- temperature:       380.0000000
  free_energy:       -90.3116231
  entropy:           624.7428935
  heat_capacity:     353.7361535
  energy:            147.0906764

- temperature:       390.0000000
  free_energy:       -96.6052282
  entropy:           633.9417254
  heat_capacity:     354.5278762
  energy:            150.6320447

- temperature:       400.0000000
  free_energy:      -102.9897458
  entropy:           642.9269901
  heat_capacity:     355.2644669
  energy:            154.1810502

- temperature:       410.0000000
  free_energy:      -109.4630870
  entropy:           651.7079360
  heat_capacity:     355.9508508
  energy:            157.7371667

- temperature:       420.0000000
  free_energy:      -116.0232525
  entropy:           660.2932550
  heat_capacity:     356.5914236
  energy:            161.2999146

- temperature:       430.0000000
  free_energy:      -122.6683273
  entropy:           668.6911232
  heat_capacity:     357.1901174
  energy:            164.8688556

- temperature:       440.0000000
  free_energy:      -129.3964758
  entropy:           676.9092385
  heat_capacity:     357.7504572
  energy:            168.4435891

- temperature:       450.0000000
  free_energy:      -136.2059372
  entropy:           684.9548549
  heat_capacity:     358.2756099
  energy:            172.0237475

- temperature:       460.0000000
  free_energy:      -143.0950208
  entropy:           692.8348138
  heat_capacity:     358.7684263
  energy:            175.6089936

- temperature:       470.0000000
  free_energy:      -150.0621028
  entropy:           700.5555738
  heat_capacity:     359.2314775
  energy:            179.1990169

- temperature:       480.0000000
  free_energy:      -157.1056220
  entropy:           708.1232368
  heat_capacity:     359.6670873
  energy:            182.7935317

- temperature:       490.0000000
  free_energy:      -164.2240765
  entropy:           715.5435728
  heat_capacity:     360.0773594
  energy:            186.3922742

- temperature:       500.0000000
  free_energy:      -171.4160206
  entropy:           722.8220427
  heat_capacity:     360.4642018
  energy:            189.9950008

- temperature:       510.0000000
  free_energy:      -178.6800617
  entropy:           729.9638189
  heat_capacity:     360.8293483
  energy:            193.6014859

- temperature:       520.0000000
  free_energy:      -186.0148577
  entropy:           736.9738046
  heat_capacity:     361.1743766
  energy:            197.2115207

- temperature:       530.0000000
  free_energy:      -193.4191140
  entropy:           743.8566514
  heat_capacity:     361.5007248
  energy:            200.8249112

- temperature:       540.0000000
  free_energy:      -200.8915817
  entropy:           750.6167759
  heat_capacity:     361.8097060
  energy:            204.4414773

- temperature:       550.0000000
  free_energy:      -208.4310545
  entropy:           757.2583744
  heat_capacity:     362.1025211
  energy:            208.0610514

- temperature:       560.0000000
  free_energy:      -216.0363674
  entropy:           763.7854373
  heat_capacity:     362.3802694
  energy:            211.6834775

- temperature:       570.0000000
  free_energy:      -223.7063941
  entropy:           770.2017616
  heat_capacity:     362.6439595
  energy:            215.3086100

- temperature:       580.0000000
  free_energy:      -231.4400456
  entropy:           776.5109629
  heat_capacity:     362.8945173
  energy:            218.9363129

- temperature:       590.0000000
  free_energy:      -239.2362678
  entropy:           782.7164868
  heat_capacity:     363.1327944
  energy:            222.5664594

- temperature:       600.0000000
  free_energy:      -247.0940407
  entropy:           788.8216186
  heat_capacity:     363.3595751
  energy:            226.1989305

- temperature:       610.0000000
  free_energy:      -255.0123760
  entropy:           794.8294935
  heat_capacity:     363.5755823
  energy:            229.8336150

- temperature:       620.0000000
  free_energy:      -262.9903164
  entropy:           800.7431046
  heat_capacity:     363.7814834
  energy:            233.4704085

- temperature:       630.0000000
  free_energy:      -271.0269334
  entropy:           806.5653119
  heat_capacity:     363.9778953
  energy:            237.1092130

- temperature:       640.0000000
  free_energy:      -279.1213270
  entropy:           812.2988495
  heat_capacity:     364.1653887
  energy:            240.7499367

- temperature:       650.0000000
  free_energy:      -287.2726236
  entropy:           817.9463330
  heat_capacity:     364.3444924
  energy:            244.3924928

- temperature:       660.0000000
  free_energy:      -295.4799752
  entropy:           823.5102657
  heat_capacity:     364.5156968
  energy:            248.0368002

- temperature:       670.0000000
  free_energy:      -303.7425584
  entropy:           828.9930454
  heat_capacity:     364.6794572
  energy:            251.6827820

- temperature:       680.0000000
  free_energy:      -312.0595733
  entropy:           834.3969694
  heat_capacity:     364.8361966
  energy:            255.3303659

- temperature:       690.0000000
  free_energy:      -320.4302423
  entropy:           839.7242408
  heat_capacity:     364.9863087
  energy:            258.9794838

- temperature:       700.0000000
  free_energy:      -328.8538096
  entropy:           844.9769727
  heat_capacity:     365.1301600
  energy:            262.6300712

- temperature:       710.0000000
  free_energy:      -337.3295401
  entropy:           850.1571935
  heat_capacity:     365.2680923
  energy:            266.2820673

- temperature:       720.0000000
  free_energy:      -345.8567183
  entropy:           855.2668510
  heat_capacity:     365.4004243
  energy:            269.9354144

- temperature:       730.0000000
  free_energy:      -354.4346481
  entropy:           860.3078167
  heat_capacity:     365.5274539
  energy:            273.5900581

- temperature:       740.0000000
  free_energy:      -363.0626517
  entropy:           865.2818897
  heat_capacity:     365.6494592
  energy:            277.2459467

- temperature:       750.0000000
  free_energy:      -371.7400687
  entropy:           870.1908002
  heat_capacity:     365.7667007
  energy:            280.9030314

- temperature:       760.0000000
  free_energy:      -380.4662560
  entropy:           875.0362128
  heat_capacity:     365.8794221
  energy:            284.5612657

- temperature:       770.0000000
  free_energy:      -389.2405867
  entropy:           879.8197301
  heat_capacity:     365.9878518
  energy:            288.2206055

- temperature:       780.0000000
  free_energy:      -398.0624494
  entropy:           884.5428956
  heat_capacity:     366.0922042
  energy:            291.8810091

- temperature:       790.0000000
  free_energy:      -406.9312484
  entropy:           889.2071963
  heat_capacity:     366.1926804
  energy:            295.5424367

- temperature:       800.0000000
  free_energy:      -415.8464019
  entropy:           893.8140655
  heat_capacity:     366.2894691
  energy:            299.2048505

- temperature:       810.0000000
  free_energy:      -424.8073428
  entropy:           898.3648855
  heat_capacity:     366.3827481
  energy:            302.8682144

- temperature:       820.0000000
  free_energy:      -433.8135173
  entropy:           902.8609897
  heat_capacity:     366.4726843
  energy:            306.5324943

- temperature:       830.0000000
  free_energy:      -442.8643845
  entropy:           907.3036651
  heat_capacity:     366.5594351
  energy:            310.1976575

- temperature:       840.0000000
  free_energy:      -451.9594166
  entropy:           911.6941541
  heat_capacity:     366.6431486
  energy:            313.8636729

- temperature:       850.0000000
  free_energy:      -461.0980977
  entropy:           916.0336570
  heat_capacity:     366.7239645
  energy:            317.5305108

- temperature:       860.0000000
  free_energy:      -470.2799237
  entropy:           920.3233333
  heat_capacity:     366.8020145
  energy:            321.1981429

- temperature:       870.0000000
  free_energy:      -479.5044020
  entropy:           924.5643037
  heat_capacity:     366.8774230
  energy:            324.8665423

- temperature:       880.0000000
  free_energy:      -488.7710510
  entropy:           928.7576523
  heat_capacity:     366.9503076
  energy:            328.5356830

- temperature:       890.0000000
  free_energy:      -498.0793998
  entropy:           932.9044272
  heat_capacity:     367.0207792
  energy:            332.2055404

- temperature:       900.0000000
  free_energy:      -507.4289877
  entropy:           937.0056429
  heat_capacity:     367.0889429
  energy:            335.8760909

- temperature:       910.0000000
  free_energy:      -516.8193641
  entropy:           941.0622813
  heat_capacity:     367.1548981
  energy:            339.5473119

- temperature:       920.0000000
  free_energy:      -526.2500879
  entropy:           945.0752931
  heat_capacity:     367.2187389
  energy:            343.2191818

- temperature:       930.0000000
  free_energy:      -535.7207276
  entropy:           949.0455994
  heat_capacity:     367.2805545
  energy:            346.8916799

- temperature:       940.0000000
  free_energy:      -545.2308605
  entropy:           952.9740925
  heat_capacity:     367.3404293
  energy:            350.5647864

- temperature:       950.0000000
  free_energy:      -554.7800729
  entropy:           956.8616371
  heat_capacity:     367.3984437
  energy:            354.2384823

- temperature:       960.0000000
  free_energy:      -564.3679596
  entropy:           960.7090718
  heat_capacity:     367.4546736
  energy:            357.9127493

- temperature:       970.0000000
  free_energy:      -573.9941234
  entropy:           964.5172097
  heat_capacity:     367.5091913
  energy:            361.5875700

- temperature:       980.0000000
  free_energy:      -583.6581754
  entropy:           968.2868399
  heat_capacity:     367.5620655
  energy:            365.2629277

- temperature:       990.0000000
  free_energy:      -593.3597344
  entropy:           972.0187278
  heat_capacity:     367.6133614
  energy:            368.9388061

- temperature:      1000.0000000
  free_energy:      -603.0984266
  entropy:           975.7136165
  heat_capacity:     367.6631410
  energy:            372.6151898
