9
Lattice="4.318910114819858 0.00030417864699091527 -0.003459678644350886 -2.1618614673066943 4.504632434783715 -1.6036555595228956 0.011456775474011948 0.016412816965264494 9.289902933828289" Properties=species:S:1:pos:R:3:forces:R:3 structure_index=0 total_energy=-27.985328674316406 stress="-0.006490163970738649 6.0595371905947104e-05 0.0019701006822288036 6.058136932551861e-05 0.008841579779982567 0.00645298371091485 0.001970047829672694 0.0064530097879469395 -0.01115543395280838" pbc="T T T"
Li      -1.83217798       4.21201661       3.37391715      -0.00028698       0.00174210      -0.00468105
Li       2.49002009       1.30724533       6.48466618       0.00048740       0.01330641       0.00433634
Li       0.33465534       2.82045062       8.03981431      -0.00152858      -0.02516177      -0.01535517
Li       2.48282902       1.36306118       0.54257109      -0.00002491       0.00323938       0.03170413
Ga       2.48561541       1.24998388       3.45459221       0.00085796      -0.00582833       0.01275746
Ga       0.32506139       2.80289011       1.96402636      -0.00055729       0.00413990      -0.00764916
Sn      -1.82860512       4.40690992       6.53409976       0.00021908      -0.00176205       0.00258819
Sn      -1.83723076       4.24470726       0.31038460       0.00133054      -0.00646770      -0.01534038
Sn       0.32916141       2.78553591       4.98266294      -0.00049721       0.01679206      -0.00836036
12
Lattice="4.592501309038233 0.0012559302517813832 0.0014506101944135013 -0.0009470007700155652 7.025472570428335 -0.0018202772097677133 0.0016511490568540362 -0.0012999228340141386 8.32162210571423" Properties=species:S:1:pos:R:3:forces:R:3 structure_index=1 total_energy=-38.03418731689453 stress="0.002813642146065831 0.00020832121663261205 3.6677269235951826e-05 0.00020837430201936513 0.004237843677401543 0.0001935758482431993 3.6700748751172796e-05 0.00019356250413693488 -0.0007953328313305974" pbc="T T T"
Li       3.09942458       5.59460578       3.94651409       0.00019229       0.00403824       0.04999723
Li       0.80716811       2.07381470       8.10796512      -0.00000059      -0.00398418       0.04996393
Li       3.10158561       2.08352378       2.70089022      -0.00000869       0.00457049      -0.05016458
Li       0.80515788       5.58981261       6.86050374       0.00003828      -0.00520374      -0.05002858
Ga       0.80509929       3.44812108       4.63390104       0.00053553       0.01192446      -0.01709108
Ga       3.10140537       0.70880405       6.17398049      -0.00046572      -0.01109205       0.01868964
Ga       0.80373174       6.95942513       2.01118279       0.00084816       0.01222205       0.01860783
Ga       3.10200253       4.22518696       0.47302585      -0.00084444      -0.01231034      -0.01631776
Sn       0.80521819       0.63625374       4.64850340       0.00050444       0.01517318       0.00665670
Sn       0.80506635       4.14785934       1.99821637       0.00047368       0.01621541      -0.00900212
Sn       3.10132494       3.52082187       6.16001583      -0.00069556      -0.01488449      -0.00884136
Sn       3.10161236       0.01159647       0.48863381      -0.00057738      -0.01666904       0.00753018
4
Lattice="3.909348630641312 0.0034244486863472252 -1.6348718974650427 -0.6872482124169702 3.8488721686572007 -1.6336803710196142 -0.05240691255789168 -0.06617135719837254 5.369363647871097" Properties=species:S:1:pos:R:3:forces:R:3 structure_index=2 total_energy=-12.521486282348633 stress="-0.005411286372691393 0.005615255329757929 0.02129679173231125 0.005615270230919123 -0.0076048169285058975 0.020699061453342438 0.02129681035876274 0.020699067041277885 0.047611773014068604" pbc="T T T"
Li       2.58101920       1.36206215       1.35356722       0.00084014      -0.00103117       0.00096189
Ga       1.45975956       2.35502453      -1.32914976      -0.00146066       0.00225095      -0.00039021
Ga       3.75735940       0.43325526      -1.33002148       0.00085588      -0.00113626       0.00044694
Sn       0.28380046       3.28449868       1.35604066      -0.00023535      -0.00008352      -0.00101862
4
Lattice="4.287042975047216 0.00021813693449374878 -0.0005018632400341888 -0.001983820155704726 4.286692446723089 -0.002054937232000457 9.640877911236129e-05 0.000396907453983623 4.353047537279242" Properties=species:S:1:pos:R:3:forces:R:3 structure_index=3 total_energy=-12.532905578613281 stress="0.0008473554626107216 -0.0026392724830657244 -0.0009691541199572384 -0.0026392301078885794 -5.24808929185383e-05 -0.003983230795711279 -0.0009690414881333709 -0.00398319773375988 0.03416379541158676" pbc="T T T"
Li       0.98038260       0.97413309       2.58519336      -0.00032587      -0.00044814       0.00008538
Ga       0.97881048       3.11652329       0.40812478       0.00022143       0.00050432      -0.00144869
Ga       3.12375119       0.97362026       0.40821679      -0.00021396      -0.00003997      -0.00041324
Sn       3.12239536       3.11732973       2.58323417       0.00031840      -0.00001621       0.00177655
12
Lattice="5.085071145519547 -0.49306299222904887 -0.6531206576538342 -2.9642785544221764 4.160260435204198 0.6517730484133547 -1.7178370020193574 0.9970058096222725 11.836911703171056" Properties=species:S:1:pos:R:3:forces:R:3 structure_index=4 total_energy=-35.933040618896484 stress="0.005366078577935696 -0.0007250741473399103 -0.002161304233595729 -0.0007251141942106187 0.004699003882706165 0.0014805363025516272 -0.002161293989047408 0.001480485312640667 0.0025487414095550776" pbc="T T T"
Li      -1.78152741       2.69289593       7.74542420      -0.00136717       0.00206530      -0.00267418
Li       0.31716105       1.48636695      11.18616877      -0.00618284       0.00116817      -0.01069308
Li       1.69076904       0.68742223       2.27600235      -0.02309707       0.01258403      -0.01161576
Li      -2.19604879       2.93432489      10.56759176       0.00060801       0.00162615       0.00190351
Li       0.79011932       3.65212901       6.51115721      -0.00490097       0.00491265      -0.00645163
Li       1.16736973       3.43683106       3.47045719       0.03753134      -0.02310608       0.02494041
Ga       0.27223382       3.95436536       9.52026519       0.00309485      -0.00033359       0.00904393
Ga       1.73724346       3.10654562       0.41468215       0.01408393      -0.00964943      -0.01412051
Ga       1.17043601       0.98724700       5.29887371      -0.02031519       0.01184695       0.01843632
Sn      -1.42528462       2.48771922       4.79774775       0.00550604      -0.00313306       0.00832509
Sn       0.73284030       1.24319384       8.27259361      -0.00234722      -0.00308872       0.00366394
Sn      -0.77230763       2.10888629       1.60815776      -0.00261372       0.00510761      -0.02075803
2
Lattice="2.7531533119647564 -1.0037822647472296e-05 -0.0006132334780283965 0.0007145908560554593 2.7512369728434316 -0.0031193222739231527 1.255029172436259e-05 6.455994103595106e-05 4.2271367848591" Properties=species:S:1:pos:R:3:forces:R:3 structure_index=5 total_energy=-5.503753662109375 stress="-0.014512634836137295 0.00177072174847126 -0.0014437261270359159 0.0017706151120364666 -0.028390858322381973 -0.007414981257170439 -0.001443700515665114 -0.007414869964122772 0.2423093020915985" pbc="T T T"
Li       1.08424694       2.55450199       1.34148438      -0.00068366      -0.00071330       0.00200413
Ga       2.45943409       1.17782790       3.45865529       0.00068366       0.00071331      -0.00200413
14
Lattice="4.423906130429052 0.0010898769994796451 -1.0674193752856012 -0.27338624352958923 5.38842192722624 -1.1310764195117045 -0.03695022095311782 -0.09578938858398922 9.553419447548348" Properties=species:S:1:pos:R:3:forces:R:3 structure_index=6 total_energy=-38.215362548828125 stress="0.025762051343917847 -8.042535228014458e-06 -0.0017026064451783895 -8.118779987853486e-06 0.014278525486588478 -0.00024320583906956017 -0.0017026473069563508 -0.00024317427596542984 0.01913297176361084" pbc="T T T"
Li       3.69507414       3.05238468       2.07283454       0.00040045      -0.00071702       0.00408349
Li       3.21099850       0.84873851       0.06685806       0.00094137      -0.00014031       0.00011202
Li       1.86866777       1.49598227       4.20141001      -0.00824329      -0.00565487      -0.02703761
Li      -0.08840611       2.63735399       5.80153345      -0.00103403       0.00778081      -0.01196878
Li       2.37464797       3.73223226       6.30379837       0.00413306      -0.00170193       0.02069641
Li       0.56982918       2.25380750       8.52758074       0.00569741      -0.00275144       0.02394093
Li       1.10714250       4.63218935       1.04907659       0.00248910       0.00433494       0.00999860
Li       0.03864309      -0.05670722       6.31923304      -0.00549468       0.00323789      -0.01497750
Ga       1.73420440       4.24263047       3.65254496      -0.00038748      -0.04712249      -0.00816385
Ga       3.07078373       3.50469355      -0.51478040       0.00148794       0.03375779       0.00659615
Ga       3.84418535       0.32465537       2.69006219      -0.00027694       0.01827187      -0.00308867
Ga       1.24659913       1.95088774       1.62564429       0.00633807       0.01820233       0.02723101
Ga       2.50530163       1.06143233       6.84819534      -0.00573767      -0.01517270      -0.02955014
Sn       0.41373480       4.94207747       7.87921413      -0.00031330      -0.01232487       0.00212794
20
Lattice="4.639130502099436 0.0020929071469586802 -0.0021897745138201833 -0.004336468655160022 7.539433621866995 -1.8545673452837617 0.004734580025462129 0.24394486318102934 10.483526527761779" Properties=species:S:1:pos:R:3:forces:R:3 structure_index=7 total_energy=-59.68787384033203 stress="0.017338622361421585 -8.136473479680717e-05 0.0002990840876009315 -8.135157986544073e-05 0.011178746819496155 0.00876752007752657 0.0002990525390487164 0.008767443709075451 0.013348327949643135" pbc="T T T"
Li       2.77401810       0.30568513      10.15803097       0.00002089      -0.00750249       0.03205080
Li       2.76816180       5.88799034       0.12054703      -0.00039007      -0.01309354       0.00472158
Li       0.44874584       2.80415278       1.48729752       0.00042920       0.02045316      -0.01900550
Li       2.77065850       2.71865697       4.82468712       0.00011483      -0.03060860      -0.02849995
Li       0.44767717       4.52961005      -1.01490802       0.00009633       0.03602878       0.00792606
Ga       2.76760960       2.98035207      -0.26405389       0.00035531      -0.02120159       0.00178771
Ga       2.76777145       7.23348419       2.70897353       0.00028436      -0.01477426       0.00344814
Ga       0.44885840       5.77131165       1.70959401      -0.00013367       0.02159719       0.00151765
Ga       2.77006899       1.31607247       2.17947295      -0.00025545       0.01011893      -0.00146018
Ga       0.45022659       4.22381169       4.01620531       0.00007589       0.00361377      -0.00326561
Ga       0.44973066       7.00498792       4.39214764      -0.00024322       0.02524087       0.01890824
Ga       2.77022102       5.56849419       5.22687007      -0.00008593      -0.03111365      -0.02418968
Ga       2.77112229       4.96238936       7.87824336       0.00023411      -0.01511963      -0.00393734
Ga       0.45326935       1.80436832       9.46720324       0.00023256       0.00699381       0.00091756
Ga       0.45113122       1.26408245       3.92298907       0.00030928      -0.00067427      -0.01495022
Ga       0.45020218       6.53251046       7.20524283       0.00010815       0.01125302       0.02187138
Ga       2.76912722       4.23897578       2.37794172      -0.00038212      -0.00988080      -0.01700862
Ga       0.44680788       7.48393613      -0.49901542      -0.00021799       0.00782183       0.00615226
Sn       0.45269954       3.30070367       6.80391440      -0.00037762       0.01284019      -0.00052150
Sn       2.77363748       1.21215336       7.41768131      -0.00017484      -0.01199270       0.01353726
16
Lattice="4.469787222211337 -0.004222787563698385 -0.0007799800397097219 -2.2290606125847883 5.217037899059099 -0.1337311409922801 0.0014176619778533475 -0.07297223167473878 16.341174444696303" Properties=species:S:1:pos:R:3:forces:R:3 structure_index=8 total_energy=-53.917179107666016 stress="0.0079730786383152 -3.7675665225833654e-05 0.00012151450937381014 -3.7640602386090904e-05 0.01234237290918827 -0.0021183169446885586 0.00012154878641013056 -0.002118257340043783 0.014184446074068546" pbc="T T T"
Li       1.81901075       3.12014009      15.85694240      -0.00012037       0.03441552      -0.01685362
Li       1.81961755       4.29490564       5.70451330      -0.00025403      -0.00435096      -0.00420412
Li      -0.41713183       3.30013606      11.15659118       0.00022654      -0.03280557       0.02435625
Li       4.04933710       0.84506596       1.43207466       0.00013801      -0.00084364      -0.01245457
Li       4.04902185       0.37668932       9.47153685       0.00033347      -0.00242214       0.02243087
Ga       1.81801759       2.61884046       9.49173129      -0.00072557      -0.00162706       0.01742185
Ga      -0.41709841       3.85254256       1.14374582       0.00032615      -0.01498080      -0.02921505
Sn      -0.41749893       2.14598565      14.06504495       0.00023449       0.01517919       0.04847272
Sn       1.81356160      -0.01566955       3.81136604       0.00020121      -0.01148010      -0.00985672
Sn       1.81472376       1.03630661      11.78565940       0.00051711      -0.01123438       0.01793404
Sn       1.81719611       2.90805638       2.66134185      -0.00022585      -0.00750642      -0.01688768
Sn       1.81942419       4.28930205      12.94192904      -0.00036668      -0.00413968      -0.04232064
Sn      -0.41862794       2.14014500       5.05071678       0.00029398       0.00827262      -0.00310221
Sn       1.81606864       1.12018139       7.03563661      -0.00036743       0.00779540      -0.00374261
Sn      -0.41630780       3.58591578       8.06032724       0.00027653       0.00613905       0.02133764
Sn       1.81612412       0.18142547      15.35477273      -0.00048754       0.01958895      -0.01331619
3
Lattice="3.9220479492215787 0.0006771348089624167 2.262537740069689 1.3043624087510992 3.6987800449433728 2.2632253873551984 0.00029774825515951 9.400497001269288e-05 4.528552889563517" Properties=species:S:1:pos:R:3:forces:R:3 structure_index=9 total_energy=-9.717073440551758 stress="0.01660163886845112 -0.00843774899840355 -0.00373473041690886 -0.008437415584921837 0.017395248636603355 -0.0009908978827297688 -0.00373450992628932 -0.000991146545857191 0.012053346261382103" pbc="T T T"
Li       1.70772884       0.45219359       2.33107463      -0.00113925      -0.00083620      -0.00001025
Ga       1.70390040       3.22524338       2.33072831       0.00296586      -0.00099895      -0.00181018
Sn       4.32002218       2.30055487       6.85757059      -0.00182660       0.00183516       0.00182043
10
Lattice="4.680062178149869 0.0027730800796277343 -2.675190549556675e-05 -2.3427322239421526 4.051790918616373 -0.00022164431910451973 -0.0012320839665629706 0.0006970138714004638 11.564281068133146" Properties=species:S:1:pos:R:3:forces:R:3 structure_index=10 total_energy=-31.543506622314453 stress="0.032515447586774826 -0.00024252741422969848 -0.0002978535776492208 -0.00024258327903226018 0.03174275904893875 0.0004289679927751422 -0.00029788384563289583 0.00042919220868498087 0.036224037408828735" pbc="T T T"
Li       2.28668656       2.02634100      10.94951521       0.00011150      -0.00009265      -0.02679992
Li       2.28760369       2.02754551       4.79295385      -0.00006498       0.00008883       0.02688091
Li       2.28743539       2.02710351       7.87230801      -0.00012302      -0.00008361      -0.00099802
Li       2.28732986       2.02644698       2.08886682       0.00039000      -0.00004103       0.00035644
Ga      -0.05160895       0.67537157       5.83579231       0.00005879      -0.00036841       0.05664521
Ga      -0.05400780       3.37579578       9.90623968      -0.00007473       0.00038002      -0.05571539
Sn      -0.05155169       0.67401802       2.95989733      -0.00044304       0.00026544      -0.04794321
Sn      -0.05209079       0.67375661       9.21522915      -0.00011108       0.00019383      -0.04159867
Sn      -0.05353058       3.37605322       1.21816549       0.00022114      -0.00013529       0.04724417
Sn      -0.05346845       3.37743946       6.52697327       0.00003540      -0.00020712       0.04192854
9
Lattice="4.34947234717395 -0.003533433438521228 -0.0009569248967747653 -2.171845749931006 4.363196372141098 -1.1033753951489247 0.0035173445064657373 -0.03250521562867244 8.73698253100119" Properties=species:S:1:pos:R:3:forces:R:3 structure_index=11 total_energy=-26.328205108642578 stress="-0.013416117988526821 -0.0003730580792762339 0.0008181669400073588 -0.00037312257336452603 -0.006908496841788292 -0.03470376878976822 0.0008183444733731449 -0.034703902900218964 -0.0011917761294171214" pbc="T T T"
Li       2.15237064       1.22375567      -0.08277650       0.00075153       0.02137898      -0.01826217
Li       2.15549063       1.04014357       2.94132233      -0.00071550       0.01421709       0.00415961
Li      -0.01778382       2.55692310       7.37644947       0.00033078      -0.01318985       0.00653182
Li       2.15856566       3.83253765       5.89026553      -0.00062336      -0.03972600       0.01627305
Li      -0.01790612       2.41803013       4.37050944       0.00019739      -0.01807657      -0.00387617
Ga       2.15807811       3.91586236       3.12063840      -0.00047556       0.03083711      -0.00867731
Ga      -0.01994378       2.61594709       1.56392473       0.00021646       0.01039775      -0.00904448
Sn       2.15515886       4.15924094       0.12075534       0.00035054       0.02608441       0.01035625
Sn       2.15625642       0.92559766       5.80982587      -0.00003228      -0.03192292       0.00253938
12
Lattice="5.53808720110732 -0.002704012707047065 -2.068449557466679 -0.7440202973255672 5.386931696748789 -2.0227939486721818 -0.010257492448748703 0.032660367073052296 8.432925417635788" Properties=species:S:1:pos:R:3:forces:R:3 structure_index=12 total_energy=-36.30645751953125 stress="-0.029649537056684494 -0.0037570472341030836 0.005798099096864462 -0.0037570614367723465 0.012068228796124458 -0.010023112408816814 0.00579815125092864 -0.010023055598139763 -0.015732957050204277" pbc="T T T"
Li       2.09317019       2.46804515       1.29902830      -0.00679092      -0.03799572      -0.01560339
Li       0.91918953       4.22842882      -1.85410895       0.01347935      -0.01802648       0.03666110
Li       4.47047050       5.29279767      -0.79512994      -0.01285282       0.01451985      -0.03726559
Li       4.07307869       4.78454552       2.36950966      -0.00097336       0.00034086      -0.00088852
Li       4.03780352       1.70150771      -1.93968413       0.00610931       0.04197689       0.01315815
Li       1.30266727       4.78479494       3.40163192       0.00036403      -0.00036186      -0.00290542
Ga       4.44685540       2.09400036       3.38680740       0.00010152      -0.00087133       0.00242567
Ga       1.67784491       2.09546959       4.42273963       0.00374647       0.00018478       0.00044000
Sn       1.11963327       1.38709707       7.15333118       0.01168587      -0.00128771       0.03512548
Sn       1.88306673       5.35386690       0.72252311      -0.00896443      -0.02121156      -0.02299976
Sn       3.49255236       4.23815336       5.04874831       0.00831856       0.02451270       0.02594243
Sn       5.00736040       2.77967654       0.65543513      -0.01422357      -0.00178042      -0.03409017
6
Lattice="2.9368967270085875 0.0005044085947319554 -0.0051751144673514325 -0.0009632175766239713 4.430834875960612 -0.00537360121959915 0.012754396138460987 0.0006032097957579383 9.511370582977607" Properties=species:S:1:pos:R:3:forces:R:3 structure_index=13 total_energy=-18.787548065185547 stress="0.015155291184782982 -0.00018528389045968652 0.0001933244348037988 -0.00018524040933698416 0.023702122271060944 -0.000847077346406877 0.0001933970779646188 -0.0008470495813526213 0.054327577352523804" pbc="T T T"
Li       2.28405829       1.11844291       3.63921113      -0.00018623      -0.00081413      -0.03038996
Li       2.27632733       3.33153857       1.98767698       0.00020288       0.00031796       0.02990695
Ga       0.81628239       3.33303873       4.46614134      -0.00031081       0.00109855       0.00248331
Ga       0.80690659       1.11581025       1.16166107       0.00055501      -0.00032728       0.00759699
Sn       0.82290315       1.11963428       6.33782517      -0.00256502      -0.00065068       0.01018829
Sn       0.81419022       3.32995631       8.80831580       0.00230417       0.00037557      -0.01978559
20
Lattice="7.612670601972527 -0.08588040233098432 -2.259594307826581 -4.251748415718251 6.310554163086724 -2.2811021319857385 0.037888779646963064 0.09533432600314325 7.942223287058622" Properties=species:S:1:pos:R:3:forces:R:3 structure_index=14 total_energy=-60.48838806152344 stress="-0.01402902603149414 0.0027965079061686993 -0.0028155376203358173 0.00279659079387784 -0.009634009562432766 -0.005570799112319946 -0.0028155602049082518 -0.005570795852690935 -0.010764396749436855" pbc="T T T"
Li       2.90823433       5.49189063       0.98720042      -0.00371477      -0.01337148      -0.01675698
Li       0.77495775       4.23152701      -2.35471978       0.01747247      -0.00555892       0.00214111
Li       1.73921079       0.50115913       1.05334371      -0.00020985       0.00246453      -0.00329688
Li       3.95812578       1.82334671       4.52099731       0.00140474       0.00909535       0.02020274
Li       6.64016529       1.04124000      -2.35165577      -0.00194010       0.00386416      -0.00085706
Li       0.19174979       6.18688164      -0.07703245       0.00229054      -0.00385651      -0.00533707
Li      -1.96047422       4.98715365       4.44908393      -0.00385604       0.00349103      -0.00118921
Li       1.22799638       2.43152984       3.30464492       0.00164244      -0.00221276       0.00095994
Li      -1.54532521       3.09800263       2.16086967      -0.01751992       0.01179133      -0.00466530
Ga       0.96325075       3.31703985       0.49662163       0.00736102       0.01922325      -0.00633996
Ga      -2.23056043       5.91808621       1.58653275      -0.00668854      -0.01588555       0.01291824
Ga      -1.20809657       2.15182722       5.01743608      -0.00280762      -0.00178171      -0.00352363
Ga       3.41460613       3.61849639      -1.22448521       0.00222966      -0.00273876       0.00406573
Ga       4.16928453       0.75660148      -0.63517047       0.00456232       0.01468350      -0.01667950
Ga       3.19658692       4.65161287       3.87056893      -0.01152589      -0.01405601       0.00915528
Sn       0.47215682       5.26300488       2.74381321      -0.00227056      -0.00026025       0.00055669
Sn       6.89132000       0.19082757       0.47539076       0.01140269       0.00463503       0.00331264
Sn       3.68873468       2.68435649       1.66474860      -0.00367707      -0.00973403      -0.00487361
Sn       1.47104460       1.47737438       6.14806648       0.00463426      -0.00910058       0.01210918
Sn      -1.70881901       3.98561629      -0.69140954       0.00121021       0.00930836      -0.00190233
4
Lattice="3.615526507031353 -5.1551959422292e-06 0.0005372887159263511 8.615577658652022e-06 3.6233895251904036 -0.001493257988729997 -0.0012170873937096163 0.0012921432093714645 6.237259436402551" Properties=species:S:1:pos:R:3:forces:R:3 structure_index=15 total_energy=-12.448844909667969 stress="0.05833436921238899 1.9854526271956274e-06 0.00014602321607526392 1.936375610966934e-06 0.03932688757777214 -0.0005982090369798243 0.00014592916704714298 -0.0005981357535347342 0.022095611318945885" pbc="T T T"
Li       1.87850129       3.25998742       2.34862772       0.00039185       0.00025910       0.01867510
Ga       0.07184949       1.44764886       0.87496960      -0.00071890       0.00010866      -0.00332840
Ga       1.87771812       3.26049894       5.73494514       0.00070797       0.00032869      -0.04892825
Sn       0.07085563       1.44972404       4.01721381      -0.00038093      -0.00069646       0.03358155
20
Lattice="6.37150348624572 -0.0003682173632804404 0.07064086591575756 0.008054720256920833 6.351740074946377 -0.010038826081738308 0.04573066427343707 -0.0022598253114968483 8.496558298540238" Properties=species:S:1:pos:R:3:forces:R:3 structure_index=16 total_energy=-57.25526809692383 stress="0.020126599818468094 9.32565308175981e-05 0.0021110158413648605 9.328257146989927e-05 0.020132774487137794 0.001203704159706831 0.002110847504809499 0.0012036346597597003 0.018002726137638092" pbc="T T T"
Li       3.88325848       2.87846338       7.94391283      -0.01942528       0.02574801       0.01892658
Li       3.86649320       2.94789772       3.60684912      -0.01636039       0.01334117      -0.00528118
Li       5.16307809       0.24642945       3.64340400      -0.00868084      -0.00117785      -0.02307316
Li       2.66882562       5.44259533       7.90595189       0.00608093       0.01075469       0.00841856
Li       5.24523929       0.31220694       7.96213457      -0.00262238      -0.01334318       0.02854804
Li       1.41664908       1.50839150       3.58033577       0.00648961      -0.02356318      -0.01314751
Li       0.18335900       4.13554889       3.57215928       0.02370105      -0.00583826      -0.02477246
Li       0.20230301       4.04719805       7.89030958       0.01385916      -0.00823756       0.02224441
Ga       2.01749286       3.49280707       1.51358287       0.00054293       0.00098906       0.00362942
Ga       0.77481865       5.93501267       5.74970528       0.00576898       0.00036636      -0.00146520
Ga       3.32755117       0.94811121       1.54343732      -0.00137333      -0.00888478       0.00009812
Ga       3.19914399       0.93053510       5.78078059       0.00040000      -0.02599110       0.00551096
Ga       0.71125730       5.99565822       1.49587611       0.00477802       0.01281765       0.00623674
Ga       2.11612524       3.50561490       5.75822870       0.00180929       0.01828686       0.00301418
Ga       1.43275240       1.52004186       8.00343438       0.01800450      -0.01887698       0.01796270
Ga       5.80938997       2.22449543       1.60087959       0.01413684       0.00032255      -0.03305227
Ga       2.67304497       5.42362956       3.59650998      -0.00358642       0.00552488      -0.01293980
Ga       4.57540977       4.74761212       1.47578683      -0.00536186      -0.00601347       0.03402269
Ga       4.56079482       4.84812964       5.84839122      -0.02139900       0.01211382      -0.04050258
Sn       5.82228760       2.21731568       5.74550742      -0.01676183       0.01166128       0.00562177
18
Lattice="4.602501420198735 0.0015403245351867192 0.0003478575867383572 -0.0027513080110702403 8.382076763352206 -1.5475058417262502 -0.00022420546045491543 -1.0257576129755934 8.456355588788165" Properties=species:S:1:pos:R:3:forces:R:3 structure_index=17 total_energy=-50.31340789794922 stress="-0.014953128062188625 -3.4689065842030686e-07 5.035894446336897e-06 -3.7241838413137884e-07 -0.013011916540563107 0.002032184274867177 5.0734988690237515e-06 0.002032423857599497 -0.01336581539362669" pbc="T T T"
Li       3.25102393       4.12105660       6.06297403       0.00009299      -0.00107793      -0.00020168
Li       0.95126622       0.75647867      -0.24793596       0.00000303      -0.00122977      -0.02452727
Li       3.24997486       6.89172476       5.67050476       0.00009603      -0.00192939       0.01162084
Li       0.95110237       0.25706644       5.35169696      -0.00005523       0.00220802      -0.01789585
Li       0.94934499       5.99676364       1.55738052       0.00011775      -0.02596831      -0.00533736
Li       0.95031342       3.01683702       5.01157110      -0.00011053       0.00476913       0.00689334
Li       3.25201080       2.12128748       0.93792345      -0.00003061       0.01918885       0.00195644
Li       3.25023786       7.69507847       0.00985255      -0.00005443       0.01379912       0.01119175
Li       3.25116715       4.91576863       0.39633850      -0.00011879       0.01414560      -0.00236709
Li       0.95028079       3.17121984       2.23998278       0.00004818      -0.01615207       0.00700393
Li       3.25014204       7.27247548       2.85350235      -0.00003579      -0.00191895       0.01432235
Ga       3.25101148       4.54087777       3.09322089       0.00000587      -0.01455639      -0.00303112
Ga       0.95127195       0.32959750       2.49925748       0.00009772      -0.04219628      -0.04058064
Ga       0.94928241       5.46961788       7.33261801      -0.00008141       0.03576906       0.03308654
Ga       3.25186281       1.17658100       6.65864312       0.00015122      -0.00162040      -0.01175484
Sn       0.94924827       5.79891192       4.40842328      -0.00007157       0.01175119       0.01115146
Sn       3.25200522       1.70993760       3.79188258       0.00000308      -0.01127678      -0.00756441
Sn       0.95015624       2.56724110       7.82654609      -0.00005749       0.01629535       0.01603365
5