# Thermal properties / unit cell (natom)

unit:
  temperature:   K
  free_energy:   kJ/mol
  entropy:       J/K/mol
  heat_capacity: J/K/mol

natom: 6    
cutoff_frequency: 0.00000
num_modes: 104976
num_integrated_modes: 74303

zero_point_energy:       4.4299214

thermal_properties:
- temperature:         0.0000000
  free_energy:         4.4299214
  entropy:             0.0000000
  heat_capacity:       0.0000000
  energy:              4.4299214

- temperature:        10.0000000
  free_energy:         4.3991335
  entropy:             9.0222493
  heat_capacity:      16.7866752
  energy:              4.4893560

- temperature:        20.0000000
  free_energy:         4.2141606
  entropy:            28.6153290
  heat_capacity:      41.7818919
  energy:              4.7864672

- temperature:        30.0000000
  free_energy:         3.8238008
  entropy:            49.3338411
  heat_capacity:      60.6000857
  energy:              5.3038160

- temperature:        40.0000000
  free_energy:         3.2323114
  entropy:            68.6573510
  heat_capacity:      73.4989375
  energy:              5.9786054

- temperature:        50.0000000
  free_energy:         2.4571546
  entropy:            86.0479830
  heat_capacity:      82.1151064
  energy:              6.7595537

- temperature:        60.0000000
  free_energy:         1.5176051
  entropy:           101.5671684
  heat_capacity:      87.9324146
  energy:              7.6116352

- temperature:        70.0000000
  free_energy:         0.4312913
  entropy:           115.4425507
  heat_capacity:      91.9575634
  energy:              8.5122698

- temperature:        80.0000000
  free_energy:        -0.7865866
  entropy:           127.9190942
  heat_capacity:      94.8212632
  energy:              9.4469410

- temperature:        90.0000000
  free_energy:        -2.1231574
  entropy:           139.2144359
  heat_capacity:      96.9142974
  energy:             10.4061418

- temperature:       100.0000000
  free_energy:        -3.5675475
  entropy:           149.5103342
  heat_capacity:      98.4821974
  energy:             11.3834859

- temperature:       110.0000000
  free_energy:        -5.1105312
  entropy:           158.9554405
  heat_capacity:      99.6828109
  energy:             12.3745673

- temperature:       120.0000000
  free_energy:        -6.7442262
  entropy:           167.6707890
  heat_capacity:     100.6202203
  energy:             13.3762684

- temperature:       130.0000000
  free_energy:        -8.4618458
  entropy:           175.7552082
  heat_capacity:     101.3647949
  energy:             14.3863313

- temperature:       140.0000000
  free_energy:       -10.2574995
  entropy:           183.2898926
  heat_capacity:     101.9652454
  energy:             15.4030855

- temperature:       150.0000000
  free_energy:       -12.1260365
  entropy:           190.3420543
  heat_capacity:     102.4560318
  energy:             16.4252717

- temperature:       160.0000000
  free_energy:       -14.0629201
  entropy:           196.9677767
  heat_capacity:     102.8620217
  energy:             17.4519242

- temperature:       170.0000000
  free_energy:       -16.0641286
  entropy:           203.2142320
  heat_capacity:     103.2014877
  energy:             18.4822909

- temperature:       180.0000000
  free_energy:       -18.1260744
  entropy:           209.1214026
  heat_capacity:     103.4880791
  energy:             19.5157780

- temperature:       190.0000000
  free_energy:       -20.2455400
  entropy:           214.7234261
  heat_capacity:     103.7321452
  energy:             20.5519110

- temperature:       200.0000000
  free_energy:       -22.4196241
  entropy:           220.0496498
  heat_capacity:     103.9416408
  energy:             21.5903059

- temperature:       210.0000000
  free_energy:       -24.6456987
  entropy:           225.1254666
  heat_capacity:     104.1227565
  energy:             22.6306493

- temperature:       220.0000000
  free_energy:       -26.9213727
  entropy:           229.9729794
  heat_capacity:     104.2803655
  energy:             23.6726828

- temperature:       230.0000000
  free_energy:       -29.2444620
  entropy:           234.6115359
  heat_capacity:     104.4183441
  energy:             24.7161913

- temperature:       240.0000000
  free_energy:       -31.6129639
  entropy:           239.0581605
  heat_capacity:     104.5398054
  energy:             25.7609947

- temperature:       250.0000000
  free_energy:       -34.0250358
  entropy:           243.3279063
  heat_capacity:     104.6472720
  energy:             26.8069408

- temperature:       260.0000000
  free_energy:       -36.4789771
  entropy:           247.4341442
  heat_capacity:     104.7428048
  energy:             27.8539004

- temperature:       270.0000000
  free_energy:       -38.9732135
  entropy:           251.3888012
  heat_capacity:     104.8281004
  energy:             28.9017628

- temperature:       280.0000000
  free_energy:       -41.5062836
  entropy:           255.2025592
  heat_capacity:     104.9045654
  energy:             29.9504330

- temperature:       290.0000000
  free_energy:       -44.0768272
  entropy:           258.8850199
  heat_capacity:     104.9733738
  energy:             30.9998286

- temperature:       300.0000000
  free_energy:       -46.6835753
  entropy:           262.4448451
  heat_capacity:     105.0355113
  energy:             32.0498782

- temperature:       310.0000000
  free_energy:       -49.3253415
  entropy:           265.8898738
  heat_capacity:     105.0918105
  energy:             33.1005194

- temperature:       320.0000000
  free_energy:       -52.0010139
  entropy:           269.2272227
  heat_capacity:     105.1429784
  energy:             34.1516973

- temperature:       330.0000000
  free_energy:       -54.7095487
  entropy:           272.4633713
  heat_capacity:     105.1896185
  energy:             35.2033639

- temperature:       340.0000000
  free_energy:       -57.4499638
  entropy:           275.6042357
  heat_capacity:     105.2322484
  energy:             36.2554764

- temperature:       350.0000000
  free_energy:       -60.2213339
  entropy:           278.6552310
  heat_capacity:     105.2713137
  energy:             37.3079970

- temperature:       360.0000000
  free_energy:       -63.0227854
  entropy:           281.6213263
  heat_capacity:     105.3072003
  energy:             38.3608920

- temperature:       370.0000000
  free_energy:       -65.8534927
  entropy:           284.5070924
  heat_capacity:     105.3402430
  energy:             39.4141315

- temperature:       380.0000000
  free_energy:       -68.7126736
  entropy:           287.3167421
  heat_capacity:     105.3707340
  energy:             40.4676884

- temperature:       390.0000000
  free_energy:       -71.5995868
  entropy:           290.0541675
  heat_capacity:     105.3989290
  energy:             41.5215385

- temperature:       400.0000000
  free_energy:       -74.5135282
  entropy:           292.7229708
  heat_capacity:     105.4250523
  energy:             42.5756601

- temperature:       410.0000000
  free_energy:       -77.4538286
  entropy:           295.3264926
  heat_capacity:     105.4493017
  energy:             43.6300333

- temperature:       420.0000000
  free_energy:       -80.4198509
  entropy:           297.8678364
  heat_capacity:     105.4718519
  energy:             44.6846404

- temperature:       430.0000000
  free_energy:       -83.4109878
  entropy:           300.3498906
  heat_capacity:     105.4928579
  energy:             45.7394652

- temperature:       440.0000000
  free_energy:       -86.4266600
  entropy:           302.7753476
  heat_capacity:     105.5124571
  energy:             46.7944929

- temperature:       450.0000000
  free_energy:       -89.4663145
  entropy:           305.1467212
  heat_capacity:     105.5307724
  energy:             47.8497101

- temperature:       460.0000000
  free_energy:       -92.5294220
  entropy:           307.4663619
  heat_capacity:     105.5479132
  energy:             48.9051044

- temperature:       470.0000000
  free_energy:       -95.6154766
  entropy:           309.7364710
  heat_capacity:     105.5639778
  energy:             49.9606648

- temperature:       480.0000000
  free_energy:       -98.7239932
  entropy:           311.9591124
  heat_capacity:     105.5790543
  energy:             51.0163807

- temperature:       490.0000000
  free_energy:      -101.8545071
  entropy:           314.1362243
  heat_capacity:     105.5932220
  energy:             52.0722428

- temperature:       500.0000000
  free_energy:      -105.0065721
  entropy:           316.2696288
  heat_capacity:     105.6065524
  energy:             53.1282424

- temperature:       510.0000000
  free_energy:      -108.1797597
  entropy:           318.3610412
  heat_capacity:     105.6191101
  energy:             54.1843713

- temperature:       520.0000000
  free_energy:      -111.3736583
  entropy:           320.4120779
  heat_capacity:     105.6309537
  energy:             55.2406222

- temperature:       530.0000000
  free_energy:      -114.5878718
  entropy:           322.4242640
  heat_capacity:     105.6421362
  energy:             56.2969882

- temperature:       540.0000000
  free_energy:      -117.8220189
  entropy:           324.3990403
  heat_capacity:     105.6527059
  energy:             57.3534629

- temperature:       550.0000000
  free_energy:      -121.0757324
  entropy:           326.3377688
  heat_capacity:     105.6627067
  energy:             58.4100404

- temperature:       560.0000000
  free_energy:      -124.3486584
  entropy:           328.2417387
  heat_capacity:     105.6721787
  energy:             59.4667152

- temperature:       570.0000000
  free_energy:      -127.6404554
  entropy:           330.1121715
  heat_capacity:     105.6811584
  energy:             60.5234823

- temperature:       580.0000000
  free_energy:      -130.9507939
  entropy:           331.9502255
  heat_capacity:     105.6896795
  energy:             61.5803369

- temperature:       590.0000000
  free_energy:      -134.2793557
  entropy:           333.7570003
  heat_capacity:     105.6977724
  energy:             62.6372745

- temperature:       600.0000000
  free_energy:      -137.6258331
  entropy:           335.5335402
  heat_capacity:     105.7054656
  energy:             63.6942910

- temperature:       610.0000000
  free_energy:      -140.9899290
  entropy:           337.2808386
  heat_capacity:     105.7127847
  energy:             64.7513825

- temperature:       620.0000000
  free_energy:      -144.3713556
  entropy:           338.9998405
  heat_capacity:     105.7197537
  energy:             65.8085455

- temperature:       630.0000000
  free_energy:      -147.7698345
  entropy:           340.6914461
  heat_capacity:     105.7263946
  energy:             66.8657765

- temperature:       640.0000000
  free_energy:      -151.1850961
  entropy:           342.3565132
  heat_capacity:     105.7327275
  energy:             67.9230724

- temperature:       650.0000000
  free_energy:      -154.6168790
  entropy:           343.9958602
  heat_capacity:     105.7387713
  energy:             68.9804301

- temperature:       660.0000000
  free_energy:      -158.0649301
  entropy:           345.6102683
  heat_capacity:     105.7445432
  energy:             70.0378469

- temperature:       670.0000000
  free_energy:      -161.5290038
  entropy:           347.2004834
  heat_capacity:     105.7500593
  energy:             71.0953201

- temperature:       680.0000000
  free_energy:      -165.0088616
  entropy:           348.7672189
  heat_capacity:     105.7553345
  energy:             72.1528473

- temperature:       690.0000000
  free_energy:      -168.5042722
  entropy:           350.3111568
  heat_capacity:     105.7603827
  energy:             73.2104261

- temperature:       700.0000000
  free_energy:      -172.0150109
  entropy:           351.8329501
  heat_capacity:     105.7652166
  energy:             74.2680542

- temperature:       710.0000000
  free_energy:      -175.5408594
  entropy:           353.3332241
  heat_capacity:     105.7698481
  energy:             75.3257297

- temperature:       720.0000000
  free_energy:      -179.0816056
  entropy:           354.8125780
  heat_capacity:     105.7742886
  energy:             76.3834506

- temperature:       730.0000000
  free_energy:      -182.6370432
  entropy:           356.2715864
  heat_capacity:     105.7785482
  energy:             77.4412149

- temperature:       740.0000000
  free_energy:      -186.2069714
  entropy:           357.7108004
  heat_capacity:     105.7826367
  energy:             78.4990209

- temperature:       750.0000000
  free_energy:      -189.7911950
  entropy:           359.1307494
  heat_capacity:     105.7865631
  energy:             79.5568671

- temperature:       760.0000000
  free_energy:      -193.3895238
  entropy:           360.5319415
  heat_capacity:     105.7903358
  energy:             80.6147517

- temperature:       770.0000000
  free_energy:      -197.0017729
  entropy:           361.9148652
  heat_capacity:     105.7939629
  energy:             81.6726733

- temperature:       780.0000000
  free_energy:      -200.6277618
  entropy:           363.2799901
  heat_capacity:     105.7974516
  energy:             82.7306305

- temperature:       790.0000000
  free_energy:      -204.2673149
  entropy:           364.6277681
  heat_capacity:     105.8008090
  energy:             83.7886219

- temperature:       800.0000000
  free_energy:      -207.9202608
  entropy:           365.9586338
  heat_capacity:     105.8040414
  energy:             84.8466463

- temperature:       810.0000000
  free_energy:      -211.5864326
  entropy:           367.2730061
  heat_capacity:     105.8071552
  energy:             85.9047023

- temperature:       820.0000000
  free_energy:      -215.2656673
  entropy:           368.5712881
  heat_capacity:     105.8101559
  energy:             86.9627890

- temperature:       830.0000000
  free_energy:      -218.9578060
  entropy:           369.8538688
  heat_capacity:     105.8130490
  energy:             88.0209051

- temperature:       840.0000000
  free_energy:      -222.6626936
  entropy:           371.1211229
  heat_capacity:     105.8158396
  energy:             89.0790496

- temperature:       850.0000000
  free_energy:      -226.3801786
  entropy:           372.3734119
  heat_capacity:     105.8185324
  energy:             90.1372216

- temperature:       860.0000000
  free_energy:      -230.1101131
  entropy:           373.6110850
  heat_capacity:     105.8211321
  energy:             91.1954200

- temperature:       870.0000000
  free_energy:      -233.8523527
  entropy:           374.8344788
  heat_capacity:     105.8236427
  energy:             92.2536439

- temperature:       880.0000000
  free_energy:      -237.6067562
  entropy:           376.0439190
  heat_capacity:     105.8260684
  energy:             93.3118925

- temperature:       890.0000000
  free_energy:      -241.3731856
  entropy:           377.2397198
  heat_capacity:     105.8284129
  energy:             94.3701650

- temperature:       900.0000000
  free_energy:      -245.1515061
  entropy:           378.4221852
  heat_capacity:     105.8306798
  energy:             95.4284605

- temperature:       910.0000000
  free_energy:      -248.9415858
  entropy:           379.5916090
  heat_capacity:     105.8328725
  energy:             96.4867784

- temperature:       920.0000000
  free_energy:      -252.7432958
  entropy:           380.7482756
  heat_capacity:     105.8349942
  energy:             97.5451177

- temperature:       930.0000000
  free_energy:      -256.5565097
  entropy:           381.8924599
  heat_capacity:     105.8370479
  energy:             98.6034780

- temperature:       940.0000000
  free_energy:      -260.3811043
  entropy:           383.0244284
  heat_capacity:     105.8390365
  energy:             99.6618585

- temperature:       950.0000000
  free_energy:      -264.2169585
  entropy:           384.1444389
  heat_capacity:     105.8409627
  energy:            100.7202585

- temperature:       960.0000000
  free_energy:      -268.0639540
  entropy:           385.2527412
  heat_capacity:     105.8428292
  energy:            101.7786775

- temperature:       970.0000000
  free_energy:      -271.9219751
  entropy:           386.3495773
  heat_capacity:     105.8446383
  energy:            102.8371149

- temperature:       980.0000000
  free_energy:      -275.7909081
  entropy:           387.4351819
  heat_capacity:     105.8463923
  energy:            103.8955701

- temperature:       990.0000000
  free_energy:      -279.6706420
  entropy:           388.5097824
  heat_capacity:     105.8480936
  energy:            104.9540426

- temperature:      1000.0000000
  free_energy:      -283.5610678
  entropy:           389.5735996
  heat_capacity:     105.8497441
  energy:            106.0125318
