phonopy:
  version: "2.37.1"
  frequency_unit_conversion_factor: 15.633302
  symmetry_tolerance: 1.00000e-05

space_group:
  type: "P1"
  number: 1
  Hall_symbol: "P 1"

primitive_matrix:
- [  1.000000000000000,  0.000000000000000, -0.000000000000000 ]
- [  0.000000000000000,  1.000000000000000,  0.000000000000000 ]
- [  0.000000000000000,  0.000000000000000,  1.000000000000000 ]

supercell_matrix:
- [   3,   0,   0 ]
- [   0,   3,   0 ]
- [   0,   0,   2 ]

primitive_cell:
  lattice:
  - [     4.331802594657790,     0.000000000000000,     0.000000000000000 ] # a
  - [     2.128387983921402,     3.797961245421172,     0.000000000000000 ] # b
  - [     2.087814183222312,     1.191870504524729,     8.989557289007211 ] # c
  points:
  - symbol: Sn # 1
    coordinates: [  0.760325651092261,  0.640698991156863,  0.186684943951931 ]
    mass: 118.710000
  - symbol: Sn # 2
    coordinates: [  0.560878884373728,  0.439403064834370,  0.786416500272764 ]
    mass: 118.710000
  - symbol: Sn # 3
    coordinates: [  0.361623398381094,  0.239570459802058,  0.386270249933704 ]
    mass: 118.710000
  - symbol: Sn # 4
    coordinates: [  0.161709715676643,  0.040655824498294,  0.986138171133970 ]
    mass: 118.710000
  - symbol: Sn # 5
    coordinates: [  0.960914384355142,  0.841260074347533,  0.586864612102148 ]
    mass: 118.710000
  reciprocal_lattice: # without 2pi
  - [     0.230850778203340,    -0.129369414445515,    -0.036462523029518 ] # a*
  - [     0.000000000000000,     0.263299158517113,    -0.034909227541881 ] # b*
  - [     0.000000000000000,     0.000000000000000,     0.111240183231586 ] # c*

unit_cell:
  lattice:
  - [     4.331802594657791,     0.000000000000000,     0.000000000000000 ] # a
  - [     2.128387983921403,     3.797961245421173,     0.000000000000000 ] # b
  - [     2.087814183222313,     1.191870504524729,     8.989557289007212 ] # c
  points:
  - symbol: Sn # 1
    coordinates: [  0.760325651092261,  0.640698991156862,  0.186684943951931 ]
    mass: 118.710000
    reduced_to: 1
  - symbol: Sn # 2
    coordinates: [  0.560878884373728,  0.439403064834370,  0.786416500272763 ]
    mass: 118.710000
    reduced_to: 2
  - symbol: Sn # 3
    coordinates: [  0.361623398381094,  0.239570459802058,  0.386270249933704 ]
    mass: 118.710000
    reduced_to: 3
  - symbol: Sn # 4
    coordinates: [  0.161709715676643,  0.040655824498294,  0.986138171133970 ]
    mass: 118.710000
    reduced_to: 4
  - symbol: Sn # 5
    coordinates: [  0.960914384355142,  0.841260074347533,  0.586864612102148 ]
    mass: 118.710000
    reduced_to: 5

supercell:
  lattice:
  - [    12.995407783973373,     0.000000000000000,     0.000000000000000 ] # a
  - [     6.385163951764207,    11.393883736263518,     0.000000000000000 ] # b
  - [     4.175628366444625,     2.383741009049459,    17.979114578014425 ] # c
  points:
  - symbol: Sn # 1
    coordinates: [  0.253441883697420,  0.213566330385621,  0.093342471975966 ]
    mass: 118.710000
    reduced_to: 1
  - symbol: Sn # 2
    coordinates: [  0.586775217030754,  0.213566330385621,  0.093342471975966 ]
    mass: 118.710000
    reduced_to: 1
  - symbol: Sn # 3
    coordinates: [  0.920108550364087,  0.213566330385621,  0.093342471975966 ]
    mass: 118.710000
    reduced_to: 1
  - symbol: Sn # 4
    coordinates: [  0.253441883697420,  0.546899663718954,  0.093342471975966 ]
    mass: 118.710000
    reduced_to: 1
  - symbol: Sn # 5
    coordinates: [  0.586775217030754,  0.546899663718954,  0.093342471975966 ]
    mass: 118.710000
    reduced_to: 1
  - symbol: Sn # 6
    coordinates: [  0.920108550364087,  0.546899663718954,  0.093342471975966 ]
    mass: 118.710000
    reduced_to: 1
  - symbol: Sn # 7
    coordinates: [  0.253441883697420,  0.880232997052287,  0.093342471975966 ]
    mass: 118.710000
    reduced_to: 1
  - symbol: Sn # 8
    coordinates: [  0.586775217030754,  0.880232997052287,  0.093342471975966 ]
    mass: 118.710000
    reduced_to: 1
  - symbol: Sn # 9
    coordinates: [  0.920108550364087,  0.880232997052287,  0.093342471975966 ]
    mass: 118.710000
    reduced_to: 1
  - symbol: Sn # 10
    coordinates: [  0.253441883697420,  0.213566330385621,  0.593342471975966 ]
    mass: 118.710000
    reduced_to: 1
  - symbol: Sn # 11
    coordinates: [  0.586775217030754,  0.213566330385621,  0.593342471975966 ]
    mass: 118.710000
    reduced_to: 1
  - symbol: Sn # 12
    coordinates: [  0.920108550364087,  0.213566330385621,  0.593342471975966 ]
    mass: 118.710000
    reduced_to: 1
  - symbol: Sn # 13
    coordinates: [  0.253441883697420,  0.546899663718954,  0.593342471975966 ]
    mass: 118.710000
    reduced_to: 1
  - symbol: Sn # 14
    coordinates: [  0.586775217030754,  0.546899663718954,  0.593342471975966 ]
    mass: 118.710000
    reduced_to: 1
  - symbol: Sn # 15
    coordinates: [  0.920108550364087,  0.546899663718954,  0.593342471975966 ]
    mass: 118.710000
    reduced_to: 1
  - symbol: Sn # 16
    coordinates: [  0.253441883697420,  0.880232997052287,  0.593342471975966 ]
    mass: 118.710000
    reduced_to: 1
  - symbol: Sn # 17
    coordinates: [  0.586775217030754,  0.880232997052287,  0.593342471975966 ]
    mass: 118.710000
    reduced_to: 1
  - symbol: Sn # 18
    coordinates: [  0.920108550364087,  0.880232997052287,  0.593342471975966 ]
    mass: 118.710000
    reduced_to: 1
  - symbol: Sn # 19
    coordinates: [  0.186959628124576,  0.146467688278123,  0.393208250136382 ]
    mass: 118.710000
    reduced_to: 19
  - symbol: Sn # 20
    coordinates: [  0.520292961457909,  0.146467688278123,  0.393208250136382 ]
    mass: 118.710000
    reduced_to: 19
  - symbol: Sn # 21
    coordinates: [  0.853626294791243,  0.146467688278123,  0.393208250136382 ]
    mass: 118.710000
    reduced_to: 19
  - symbol: Sn # 22
    coordinates: [  0.186959628124576,  0.479801021611457,  0.393208250136382 ]
    mass: 118.710000
    reduced_to: 19
  - symbol: Sn # 23
    coordinates: [  0.520292961457909,  0.479801021611457,  0.393208250136382 ]
    mass: 118.710000
    reduced_to: 19
  - symbol: Sn # 24
    coordinates: [  0.853626294791243,  0.479801021611457,  0.393208250136382 ]
    mass: 118.710000
    reduced_to: 19
  - symbol: Sn # 25
    coordinates: [  0.186959628124576,  0.813134354944790,  0.393208250136382 ]
    mass: 118.710000
    reduced_to: 19
  - symbol: Sn # 26
    coordinates: [  0.520292961457909,  0.813134354944790,  0.393208250136382 ]
    mass: 118.710000
    reduced_to: 19
  - symbol: Sn # 27
    coordinates: [  0.853626294791243,  0.813134354944790,  0.393208250136382 ]
    mass: 118.710000
    reduced_to: 19
  - symbol: Sn # 28
    coordinates: [  0.186959628124576,  0.146467688278123,  0.893208250136382 ]
    mass: 118.710000
    reduced_to: 19
  - symbol: Sn # 29
    coordinates: [  0.520292961457909,  0.146467688278123,  0.893208250136382 ]
    mass: 118.710000
    reduced_to: 19
  - symbol: Sn # 30
    coordinates: [  0.853626294791243,  0.146467688278123,  0.893208250136382 ]
    mass: 118.710000
    reduced_to: 19
  - symbol: Sn # 31
    coordinates: [  0.186959628124576,  0.479801021611457,  0.893208250136382 ]
    mass: 118.710000
    reduced_to: 19
  - symbol: Sn # 32
    coordinates: [  0.520292961457909,  0.479801021611457,  0.893208250136382 ]
    mass: 118.710000
    reduced_to: 19
  - symbol: Sn # 33
    coordinates: [  0.853626294791243,  0.479801021611457,  0.893208250136382 ]
    mass: 118.710000
    reduced_to: 19
  - symbol: Sn # 34
    coordinates: [  0.186959628124576,  0.813134354944790,  0.893208250136382 ]
    mass: 118.710000
    reduced_to: 19
  - symbol: Sn # 35
    coordinates: [  0.520292961457909,  0.813134354944790,  0.893208250136382 ]
    mass: 118.710000
    reduced_to: 19
  - symbol: Sn # 36
    coordinates: [  0.853626294791243,  0.813134354944790,  0.893208250136382 ]
    mass: 118.710000
    reduced_to: 19
  - symbol: Sn # 37
    coordinates: [  0.120541132793698,  0.079856819934019,  0.193135124966852 ]
    mass: 118.710000
    reduced_to: 37
  - symbol: Sn # 38
    coordinates: [  0.453874466127031,  0.079856819934019,  0.193135124966852 ]
    mass: 118.710000
    reduced_to: 37
  - symbol: Sn # 39
    coordinates: [  0.787207799460365,  0.079856819934019,  0.193135124966852 ]
    mass: 118.710000
    reduced_to: 37
  - symbol: Sn # 40
    coordinates: [  0.120541132793698,  0.413190153267353,  0.193135124966852 ]
    mass: 118.710000
    reduced_to: 37
  - symbol: Sn # 41
    coordinates: [  0.453874466127031,  0.413190153267353,  0.193135124966852 ]
    mass: 118.710000
    reduced_to: 37
  - symbol: Sn # 42
    coordinates: [  0.787207799460365,  0.413190153267353,  0.193135124966852 ]
    mass: 118.710000
    reduced_to: 37
  - symbol: Sn # 43
    coordinates: [  0.120541132793698,  0.746523486600686,  0.193135124966852 ]
    mass: 118.710000
    reduced_to: 37
  - symbol: Sn # 44
    coordinates: [  0.453874466127031,  0.746523486600686,  0.193135124966852 ]
    mass: 118.710000
    reduced_to: 37
  - symbol: Sn # 45
    coordinates: [  0.787207799460365,  0.746523486600686,  0.193135124966852 ]
    mass: 118.710000
    reduced_to: 37
  - symbol: Sn # 46
    coordinates: [  0.120541132793698,  0.079856819934019,  0.693135124966852 ]
    mass: 118.710000
    reduced_to: 37
  - symbol: Sn # 47
    coordinates: [  0.453874466127031,  0.079856819934019,  0.693135124966852 ]
    mass: 118.710000
    reduced_to: 37
  - symbol: Sn # 48
    coordinates: [  0.787207799460365,  0.079856819934019,  0.693135124966852 ]
    mass: 118.710000
    reduced_to: 37
  - symbol: Sn # 49
    coordinates: [  0.120541132793698,  0.413190153267353,  0.693135124966852 ]
    mass: 118.710000
    reduced_to: 37
  - symbol: Sn # 50
    coordinates: [  0.453874466127031,  0.413190153267353,  0.693135124966852 ]
    mass: 118.710000
    reduced_to: 37
  - symbol: Sn # 51
    coordinates: [  0.787207799460365,  0.413190153267353,  0.693135124966852 ]
    mass: 118.710000
    reduced_to: 37
  - symbol: Sn # 52
    coordinates: [  0.120541132793698,  0.746523486600686,  0.693135124966852 ]
    mass: 118.710000
    reduced_to: 37
  - symbol: Sn # 53
    coordinates: [  0.453874466127031,  0.746523486600686,  0.693135124966852 ]
    mass: 118.710000
    reduced_to: 37
  - symbol: Sn # 54
    coordinates: [  0.787207799460365,  0.746523486600686,  0.693135124966852 ]
    mass: 118.710000
    reduced_to: 37
  - symbol: Sn # 55
    coordinates: [  0.053903238558881,  0.013551941499431,  0.493069085566985 ]
    mass: 118.710000
    reduced_to: 55
  - symbol: Sn # 56
    coordinates: [  0.387236571892214,  0.013551941499431,  0.493069085566985 ]
    mass: 118.710000
    reduced_to: 55
  - symbol: Sn # 57
    coordinates: [  0.720569905225547,  0.013551941499431,  0.493069085566985 ]
    mass: 118.710000
    reduced_to: 55
  - symbol: Sn # 58
    coordinates: [  0.053903238558881,  0.346885274832765,  0.493069085566985 ]
    mass: 118.710000
    reduced_to: 55
  - symbol: Sn # 59
    coordinates: [  0.387236571892214,  0.346885274832765,  0.493069085566985 ]
    mass: 118.710000
    reduced_to: 55
  - symbol: Sn # 60
    coordinates: [  0.720569905225547,  0.346885274832765,  0.493069085566985 ]
    mass: 118.710000
    reduced_to: 55
  - symbol: Sn # 61
    coordinates: [  0.053903238558881,  0.680218608166098,  0.493069085566985 ]
    mass: 118.710000
    reduced_to: 55
  - symbol: Sn # 62
    coordinates: [  0.387236571892214,  0.680218608166098,  0.493069085566985 ]
    mass: 118.710000
    reduced_to: 55
  - symbol: Sn # 63
    coordinates: [  0.720569905225547,  0.680218608166098,  0.493069085566985 ]
    mass: 118.710000
    reduced_to: 55
  - symbol: Sn # 64
    coordinates: [  0.053903238558881,  0.013551941499431,  0.993069085566985 ]
    mass: 118.710000
    reduced_to: 55
  - symbol: Sn # 65
    coordinates: [  0.387236571892214,  0.013551941499431,  0.993069085566985 ]
    mass: 118.710000
    reduced_to: 55
  - symbol: Sn # 66
    coordinates: [  0.720569905225547,  0.013551941499431,  0.993069085566985 ]
    mass: 118.710000
    reduced_to: 55
  - symbol: Sn # 67
    coordinates: [  0.053903238558881,  0.346885274832765,  0.993069085566985 ]
    mass: 118.710000
    reduced_to: 55
  - symbol: Sn # 68
    coordinates: [  0.387236571892214,  0.346885274832765,  0.993069085566985 ]
    mass: 118.710000
    reduced_to: 55
  - symbol: Sn # 69
    coordinates: [  0.720569905225547,  0.346885274832765,  0.993069085566985 ]
    mass: 118.710000
    reduced_to: 55
  - symbol: Sn # 70
    coordinates: [  0.053903238558881,  0.680218608166098,  0.993069085566985 ]
    mass: 118.710000
    reduced_to: 55
  - symbol: Sn # 71
    coordinates: [  0.387236571892214,  0.680218608166098,  0.993069085566985 ]
    mass: 118.710000
    reduced_to: 55
  - symbol: Sn # 72
    coordinates: [  0.720569905225547,  0.680218608166098,  0.993069085566985 ]
    mass: 118.710000
    reduced_to: 55
  - symbol: Sn # 73
    coordinates: [  0.320304794785047,  0.280420024782511,  0.293432306051074 ]
    mass: 118.710000
    reduced_to: 73
  - symbol: Sn # 74
    coordinates: [  0.653638128118381,  0.280420024782511,  0.293432306051074 ]
    mass: 118.710000
    reduced_to: 73
  - symbol: Sn # 75
    coordinates: [  0.986971461451714,  0.280420024782511,  0.293432306051074 ]
    mass: 118.710000
    reduced_to: 73
  - symbol: Sn # 76
    coordinates: [  0.320304794785047,  0.613753358115844,  0.293432306051074 ]
    mass: 118.710000
    reduced_to: 73
  - symbol: Sn # 77
    coordinates: [  0.653638128118381,  0.613753358115844,  0.293432306051074 ]
    mass: 118.710000
    reduced_to: 73
  - symbol: Sn # 78
    coordinates: [  0.986971461451714,  0.613753358115844,  0.293432306051074 ]
    mass: 118.710000
    reduced_to: 73
  - symbol: Sn # 79
    coordinates: [  0.320304794785047,  0.947086691449178,  0.293432306051074 ]
    mass: 118.710000
    reduced_to: 73
  - symbol: Sn # 80
    coordinates: [  0.653638128118381,  0.947086691449178,  0.293432306051074 ]
    mass: 118.710000
    reduced_to: 73
  - symbol: Sn # 81
    coordinates: [  0.986971461451714,  0.947086691449178,  0.293432306051074 ]
    mass: 118.710000
    reduced_to: 73
  - symbol: Sn # 82
    coordinates: [  0.320304794785047,  0.280420024782511,  0.793432306051074 ]
    mass: 118.710000
    reduced_to: 73
  - symbol: Sn # 83
    coordinates: [  0.653638128118381,  0.280420024782511,  0.793432306051074 ]
    mass: 118.710000
    reduced_to: 73
  - symbol: Sn # 84
    coordinates: [  0.986971461451714,  0.280420024782511,  0.793432306051074 ]
    mass: 118.710000
    reduced_to: 73
  - symbol: Sn # 85
    coordinates: [  0.320304794785047,  0.613753358115844,  0.793432306051074 ]
    mass: 118.710000
    reduced_to: 73
  - symbol: Sn # 86
    coordinates: [  0.653638128118381,  0.613753358115844,  0.793432306051074 ]
    mass: 118.710000
    reduced_to: 73
  - symbol: Sn # 87
    coordinates: [  0.986971461451714,  0.613753358115844,  0.793432306051074 ]
    mass: 118.710000
    reduced_to: 73
  - symbol: Sn # 88
    coordinates: [  0.320304794785047,  0.947086691449178,  0.793432306051074 ]
    mass: 118.710000
    reduced_to: 73
  - symbol: Sn # 89
    coordinates: [  0.653638128118381,  0.947086691449178,  0.793432306051074 ]
    mass: 118.710000
    reduced_to: 73
  - symbol: Sn # 90
    coordinates: [  0.986971461451714,  0.947086691449178,  0.793432306051074 ]
    mass: 118.710000
    reduced_to: 73

displacements:
- atom:    1
  displacement:
    [   0.0100000000000000,  0.0000000000000000,  0.0000000000000000 ]
  forces:
  - [  -0.0084579549729824, -0.0029282234609127, -0.0014656982384622 ]
  - [   0.0036492634098977, -0.0034567799884826, -0.0016146441921592 ]
  - [   0.0036713788285851, -0.0034588179551065, -0.0016190703026950 ]
  - [   0.0040542585775256, -0.0036353373434395, -0.0016291714273393 ]
  - [   0.0037460280582309, -0.0034491643309593, -0.0016166055575013 ]
  - [   0.0040991734713316, -0.0033743055537343, -0.0015972019173205 ]
  - [   0.0040553221479058, -0.0036489209160209, -0.0016453382559121 ]
  - [   0.0040899757295847, -0.0033503107260913, -0.0015872642397881 ]
  - [   0.0037471891846508, -0.0034479871392250, -0.0016172942705452 ]
  - [   0.0039824452251196, -0.0034441640600562, -0.0015975832939148 ]
  - [   0.0039954911917448, -0.0034627658315003, -0.0016290084458888 ]
  - [   0.0039954856038094, -0.0034623784013093, -0.0016288049519062 ]
  - [   0.0039707380346954, -0.0034492164850235, -0.0016129096038640 ]
  - [   0.0039969040080905, -0.0034637390635908, -0.0016276305541396 ]
  - [   0.0040045976638794, -0.0034583199303597, -0.0016114143654704 ]
  - [   0.0039715897291899, -0.0034503333736211, -0.0016113705933094 ]
  - [   0.0040048714727163, -0.0034574132878333, -0.0016129547730088 ]
  - [   0.0039964891038835, -0.0034635425545275, -0.0016272668726742 ]
  - [   0.0057878512889147,  0.0070814350619912,  0.0005058655515313 ]
  - [   0.0058166319504380,  0.0072515970095992,  0.0006260168738663 ]
  - [   0.0058131702244282,  0.0069243847392499,  0.0004117218777537 ]
  - [   0.0057914257049561,  0.0072621107101440,  0.0006349971517920 ]
  - [   0.0058184000663459,  0.0070869261398911,  0.0005125370807946 ]
  - [   0.0058065140619874,  0.0069277514703572,  0.0003924737684429 ]
  - [   0.0055145160295069,  0.0070898858830333,  0.0005412488244474 ]
  - [   0.0055261882953346,  0.0070888549089432,  0.0004803505726159 ]
  - [   0.0063777458854020,  0.0070791682228446,  0.0005081151612103 ]
  - [   0.0058843893930316,  0.0070593720301986,  0.0004012752324343 ]
  - [   0.0059263654984534,  0.0070840991102159,  0.0005286950618029 ]
  - [   0.0055423183366656,  0.0070897275581956,  0.0005125035531819 ]
  - [   0.0059621864929795,  0.0070944717153907,  0.0004984084516764 ]
  - [   0.0067326761782169,  0.0076741939410567, -0.0003819912672043 ]
  - [   0.0067427502945065,  0.0064995712600648,  0.0014170100912452 ]
  - [   0.0058763492852449,  0.0068952380679548,  0.0004100664518774 ]
  - [   0.0057477820664644,  0.0070636104792356,  0.0005000140517950 ]
  - [   0.0058593084104359,  0.0072835953906178,  0.0006144270300865 ]
  - [   0.0015829158946872,  0.0078642098233104, -0.0008710664696991 ]
  - [   0.0017081231344491,  0.0045806686393917,  0.0035373782739043 ]
  - [   0.0000307920854539,  0.0062764240428805,  0.0012725237756968 ]
  - [  -0.0010124256368726,  0.0062013939023018,  0.0012013916857541 ]
  - [  -0.0005916225491092,  0.0063180951401591,  0.0012838467955589 ]
  - [  -0.0006152715650387,  0.0062714470550418,  0.0012620473280549 ]
  - [  -0.0006122256163508,  0.0066221095621586,  0.0015013893134892 ]
  - [  -0.0006015624967404,  0.0062757264822721,  0.0012594866566360 ]
  - [  -0.0006016158731654,  0.0059698256663978,  0.0010404973290861 ]
  - [  -0.0006081024184823,  0.0062437253072858,  0.0012273620814085 ]
  - [  -0.0005904547870159,  0.0062851095572114,  0.0012684869579971 ]
  - [  -0.0006126798689365,  0.0063268383964896,  0.0013046846725047 ]
  - [  -0.0005264944629744,  0.0062526855617762,  0.0012076422572136 ]
  - [  -0.0005311548011377,  0.0063165808096528,  0.0013275900855660 ]
  - [  -0.0007563745602965,  0.0062862006016076,  0.0012619937770069 ]
  - [  -0.0005449840100482,  0.0062845135107636,  0.0012642657384276 ]
  - [  -0.0006329618627205,  0.0062169050797820,  0.0012830765917897 ]
  - [  -0.0006363509455696,  0.0063551655039191,  0.0012485384941101 ]
  - [  -0.0055460333824158, -0.0019877930171788,  0.0045137321576476 ]
  - [  -0.0055395551025867, -0.0020507154986262,  0.0043932916596532 ]
  - [  -0.0057691521942616, -0.0020168963819742,  0.0044471644796431 ]
  - [  -0.0056045902892947, -0.0020172665826976,  0.0044554676860571 ]
  - [  -0.0056223319843411, -0.0020587411709130,  0.0044121351093054 ]
  - [  -0.0056286389008164, -0.0019774141255766,  0.0044899778440595 ]
  - [  -0.0056454576551914, -0.0020871437154710,  0.0044710263609886 ]
  - [  -0.0055593661963940, -0.0020188381895423,  0.0044507556594908 ]
  - [  -0.0056495778262615, -0.0019495335873216,  0.0044349003583193 ]
  - [  -0.0056038154289126, -0.0019945891108364,  0.0044655338861048 ]
  - [  -0.0060083316639066, -0.0020929477177560,  0.0043975049629807 ]
  - [  -0.0056290677748621, -0.0020339009352028,  0.0044446331448853 ]
  - [  -0.0034916191361845, -0.0035697086714208,  0.0066061182878911 ]
  - [  -0.0034801079891622, -0.0004982659593225,  0.0022967192344368 ]
  - [  -0.0049780178815126, -0.0020174796227366,  0.0044437716715038 ]
  - [  -0.0056117093190551, -0.0020271469838917,  0.0044418759644032 ]
  - [  -0.0056269811466336, -0.0016732460353523,  0.0046930937096477 ]
  - [  -0.0056168548762798, -0.0023448427673429,  0.0042147100903094 ]
  - [  -0.0034981409553438, -0.0079172123223543, -0.0047201090492308 ]
  - [  -0.0038380681071430, -0.0078973472118378, -0.0046091154217720 ]
  - [  -0.0034501310437918, -0.0079066641628742, -0.0046010985970497 ]
  - [  -0.0035030241124332, -0.0080922972410917, -0.0047172503545880 ]
  - [  -0.0035225939936936, -0.0077015184797347, -0.0045082080177963 ]
  - [  -0.0036324553657323, -0.0079232016578317, -0.0046224175021052 ]
  - [  -0.0034247566945851, -0.0078969066962600, -0.0046186787076294 ]
  - [  -0.0026516257785261, -0.0084743872284889, -0.0037085046060383 ]
  - [  -0.0026461831294000, -0.0073148827068508, -0.0055155255831778 ]
  - [  -0.0035955868661404, -0.0079047232866287, -0.0046153347939253 ]
  - [  -0.0035649258643389, -0.0080653037875891, -0.0047154682688415 ]
  - [  -0.0035625428427011, -0.0077300188131630, -0.0044944691471756 ]
  - [  -0.0038679665885866, -0.0078937057405710, -0.0045821331441402 ]
  - [  -0.0030001550912857, -0.0079023577272892, -0.0046190191060305 ]
  - [  -0.0038546433206648, -0.0078996177762747, -0.0046375892125070 ]
  - [  -0.0035885097458959, -0.0077249873429537, -0.0044876206666231 ]
  - [  -0.0035739601589739, -0.0080610252916813, -0.0047320774756372 ]
  - [  -0.0035608955658972, -0.0078992852941155, -0.0046114074066281 ]
- atom:    1
  displacement:
    [  -0.0100000000000000,  0.0000000000000000,  0.0000000000000000 ]
  forces:
  - [   0.0164359454065561, -0.0039775348268449, -0.0017619659192860 ]
  - [   0.0043103322386742, -0.0034545050002635, -0.0016154497861862 ]
  - [   0.0043319799005985, -0.0034510074183345, -0.0016130683943629 ]
  - [   0.0039256224408746, -0.0032900036312640, -0.0016044299118221 ]
  - [   0.0042379330843687, -0.0034634654875845, -0.0016125529073179 ]
  - [   0.0038931341841817, -0.0035592485219240, -0.0016389410011470 ]
  - [   0.0039271884597838, -0.0032505146227777, -0.0015826649032533 ]
  - [   0.0038839511107653, -0.0035387882962823, -0.0016421605832875 ]
  - [   0.0042386213317513, -0.0034620678052306, -0.0016196467913687 ]
  - [   0.0040002525784075, -0.0034687309525907, -0.0016373330727220 ]
  - [   0.0039866287261248, -0.0034504947252572, -0.0016053821891546 ]
  - [   0.0039865672588348, -0.0034504695795476, -0.0016050906851888 ]
  - [   0.0040092812851071, -0.0034640829544514, -0.0016222042031586 ]
  - [   0.0039855097420514, -0.0034510339610279, -0.0016050618141890 ]
  - [   0.0039780829101801, -0.0034562258515507, -0.0016207466833293 ]
  - [   0.0040101683698595, -0.0034645863343030, -0.0016201911494136 ]
  - [   0.0039776386693120, -0.0034553504083306, -0.0016225082799792 ]
  - [   0.0039849877357483, -0.0034510781988502, -0.0016050580888987 ]
  - [   0.0058237472549081,  0.0070958975702524,  0.0005216407589614 ]
  - [   0.0057970816269517,  0.0069218426942825,  0.0003993334248662 ]
  - [   0.0057965433225036,  0.0072498116642237,  0.0006131464615464 ]
  - [   0.0058191171847284,  0.0069192051887512,  0.0003929515369236 ]
  - [   0.0057915030047297,  0.0070889438502491,  0.0005141026340425 ]
  - [   0.0058067329227924,  0.0072522093541920,  0.0006340034306049 ]
  - [   0.0060935243964195,  0.0070848632603884,  0.0004833270795643 ]
  - [   0.0060911686159670,  0.0070852534845471,  0.0005442607216537 ]
  - [   0.0052332626655698,  0.0070938291028142,  0.0005166814662516 ]
  - [   0.0057297772727907,  0.0071227853186429,  0.0006356369704008 ]
  - [   0.0056772250682116,  0.0071022701449692,  0.0005127154290676 ]
  - [   0.0060715158469975,  0.0070854444056749,  0.0005096239037812 ]
  - [   0.0056460760533810,  0.0070710587315261,  0.0005405982956290 ]
  - [   0.0048635397106409,  0.0064894082024693,  0.0014236522838473 ]
  - [   0.0048818783834577,  0.0076646725647151, -0.0003786049783230 ]
  - [   0.0057357954792678,  0.0072810966521502,  0.0006175958551466 ]
  - [   0.0058618057519197,  0.0071162534877658,  0.0005297819152474 ]
  - [   0.0057536512613297,  0.0068916138261557,  0.0004129977896810 ]
  - [  -0.0029645010363311,  0.0045639751479030,  0.0035988716408610 ]
  - [  -0.0027412723284215,  0.0078439563512802, -0.0008090953342617 ]
  - [  -0.0012399887200445,  0.0062825493514538,  0.0012723002582788 ]
  - [  -0.0001831606496125,  0.0063092522323132,  0.0012748041190207 ]
  - [  -0.0006152209825814,  0.0062578022480011,  0.0012491252273321 ]
  - [  -0.0005941615090705,  0.0063035879284143,  0.0012714876793325 ]
  - [  -0.0006000409484841,  0.0059512588195503,  0.0010326299816370 ]
  - [  -0.0006088516674936,  0.0062916479073465,  0.0012721004895866 ]
  - [  -0.0006056245183572,  0.0066047683358192,  0.0014952369965613 ]
  - [  -0.0005984921008348,  0.0063273748382926,  0.0013025114312768 ]
  - [  -0.0006187446415424,  0.0062852958217263,  0.0012615616433322 ]
  - [  -0.0005948022007942,  0.0062446184456348,  0.0012245131656528 ]
  - [  -0.0006832627695985,  0.0063174976967275,  0.0013215220533311 ]
  - [  -0.0006795736262575,  0.0062536476179957,  0.0012008240446448 ]
  - [  -0.0004512526793405,  0.0062825982458889,  0.0012664101086557 ]
  - [  -0.0006658702623099,  0.0062848068773746,  0.0012640366330743 ]
  - [  -0.0005763372173533,  0.0063548143953085,  0.0012441324070096 ]
  - [  -0.0005717814201489,  0.0062163528054953,  0.0012793308123946 ]
  - [  -0.0056908386759460, -0.0020488318987191,  0.0043874862603843 ]
  - [  -0.0056985244154930, -0.0019856942817569,  0.0045077339746058 ]
  - [  -0.0054654935374856, -0.0020188707858324,  0.0044539258815348 ]
  - [  -0.0056331860832870, -0.0020192563533783,  0.0044470387510955 ]
  - [  -0.0056126611307263, -0.0019752618391067,  0.0044868937693536 ]
  - [  -0.0056104459799826, -0.0020588471088558,  0.0044102156534791 ]
  - [  -0.0055886581540108, -0.0019513396546245,  0.0044328379444778 ]
  - [  -0.0056781806051731, -0.0020188661292195,  0.0044502979144454 ]
  - [  -0.0055872797966003, -0.0020878505893052,  0.0044683776795864 ]
  - [  -0.0056337378919125, -0.0020505196880549,  0.0044309231452644 ]
  - [  -0.0052320165559649, -0.0018852698849514,  0.0045464881695807 ]
  - [  -0.0056035844609141, -0.0020104809664190,  0.0044520511291921 ]
  - [  -0.0079157911241055, -0.0003239910583943,  0.0020921723917127 ]
  - [  -0.0075837736949325, -0.0033987981732935,  0.0064038708806038 ]
  - [  -0.0062576830387115, -0.0020078937523067,  0.0044387099333107 ]
  - [  -0.0056224786676466, -0.0020069270394742,  0.0044557726942003 ]
  - [  -0.0056074047461152, -0.0023684878833592,  0.0041982703842223 ]
  - [  -0.0056235408410430, -0.0016966986004263,  0.0046773268841207 ]
  - [  -0.0036544671747833, -0.0078875832259655, -0.0045153093524277 ]
  - [  -0.0033113751560450, -0.0078972801566124, -0.0046144071966410 ]
  - [  -0.0036884006112814, -0.0078995367512107, -0.0046411133371294 ]
  - [  -0.0036436014343053, -0.0077057550661266, -0.0045061265118420 ]
  - [  -0.0036291116848588, -0.0080968830734491, -0.0047143739648163 ]
  - [  -0.0035184184089303, -0.0078800097107887, -0.0045991521328688 ]
  - [  -0.0037249794695526, -0.0078896554186940, -0.0046175792813301 ]
  - [  -0.0045098359696567, -0.0073103308677673, -0.0055294716730714 ]
  - [  -0.0044897254556417, -0.0084714209660888, -0.0037209023721516 ]
  - [  -0.0035546354483813, -0.0078913448378444, -0.0046072243712842 ]
  - [  -0.0035829190164804, -0.0077263833954930, -0.0045034694485366 ]
  - [  -0.0035869486164302, -0.0080619500949979, -0.0047255796380341 ]
  - [  -0.0032762666232884, -0.0079014124348760, -0.0046388632617891 ]
  - [  -0.0041483249515295, -0.0078913168981671, -0.0046010781079531 ]
  - [  -0.0032982239499688, -0.0078948838636279, -0.0045836563222110 ]
  - [  -0.0035596219822764, -0.0080759506672621, -0.0047329268418252 ]
  - [  -0.0035755285061896, -0.0077398158609867, -0.0044913673773408 ]
  - [  -0.0035871670115739, -0.0078976759687066, -0.0046091070398688 ]
- atom:    1
  displacement:
    [   0.0048887082061036,  0.0087235618915426,  0.0000000000000000 ]
  forces:
  - [  -0.0016332725062966, -0.0150166228413582, -0.0013208040036261 ]
  - [   0.0038215841632336, -0.0032994607463479, -0.0016383286565542 ]
  - [   0.0038307067006826, -0.0033031571656466, -0.0016377991996706 ]
  - [   0.0038395379669964, -0.0036903680302203, -0.0015976149588823 ]
  - [   0.0038779678288847, -0.0036812508478761, -0.0016140541993082 ]
  - [   0.0041306298226118, -0.0034195363987237, -0.0015869471244514 ]
  - [   0.0038807129021734, -0.0036671943962574, -0.0016359440051019 ]
  - [   0.0041164415888488, -0.0033989201765507, -0.0015968759544194 ]
  - [   0.0038785326760262, -0.0036788091529161, -0.0016184314154088 ]
  - [   0.0039979554712772, -0.0034708371385932, -0.0015979893505573 ]
  - [   0.0039880666881800, -0.0034770281054080, -0.0016129291616380 ]
  - [   0.0039878990501165, -0.0034769480116665, -0.0016126953996718 ]
  - [   0.0039864843711257, -0.0034488439559937, -0.0016300566494465 ]
  - [   0.0039886403828859, -0.0034491633996367, -0.0016280314885080 ]
  - [   0.0039972709491849, -0.0034450753591955, -0.0016119121573865 ]
  - [   0.0039876978844404, -0.0034506695810705, -0.0016285227611661 ]
  - [   0.0039968611672521, -0.0034438767470419, -0.0016136160120368 ]
  - [   0.0039877872914076, -0.0034492332488298, -0.0016278745606542 ]
  - [   0.0057905549183488,  0.0070816059596837,  0.0005057724192739 ]
  - [   0.0059550558216870,  0.0069822212681174,  0.0006378069519997 ]