phonopy:
  version: "2.37.1"
  frequency_unit_conversion_factor: 15.633302
  symmetry_tolerance: 1.00000e-05

space_group:
  type: "P1"
  number: 1
  Hall_symbol: "P 1"

primitive_matrix:
- [  1.000000000000000,  0.000000000000000,  0.000000000000000 ]
- [  0.000000000000000,  1.000000000000000,  0.000000000000000 ]
- [  0.000000000000000,  0.000000000000000,  1.000000000000000 ]

supercell_matrix:
- [   2,   0,   0 ]
- [   0,   2,   0 ]
- [   0,   0,   2 ]

primitive_cell:
  lattice:
  - [     5.282245000908539,     0.000000000000000,     0.000000000000000 ] # a
  - [    -2.485815444411836,     4.661876254440856,     0.000000000000000 ] # b
  - [    -1.396422275572176,    -2.323673067775014,     7.955754757524436 ] # c
  points:
  - symbol: Li # 1
    coordinates: [  0.451302214319143,  0.877730783675252,  0.629773687952019 ]
    mass: 6.940000
  - symbol: Li # 2
    coordinates: [  0.961576054571015,  0.386991218814368,  0.629753857368544 ]
    mass: 6.940000
  - symbol: Li # 3
    coordinates: [  0.948192586971333,  0.873242560402085,  0.112543232110951 ]
    mass: 6.940000
  - symbol: Li # 4
    coordinates: [  0.624010211572099,  0.550129519602413,  0.464598404195530 ]
    mass: 6.940000
  - symbol: Li # 5
    coordinates: [  0.448551225306942,  0.373881649740527,  0.112580802084187 ]
    mass: 6.940000
  - symbol: Li # 6
    coordinates: [  0.536557175094025,  0.961897121714524,  0.288335329191612 ]
    mass: 6.940000
  - symbol: Li # 7
    coordinates: [  0.110133067422274,  0.536303540449169,  0.946818123854937 ]
    mass: 6.940000
  - symbol: Li # 8
    coordinates: [  0.124459643807861,  0.049633356630319,  0.464041513139450 ]
    mass: 6.940000
  - symbol: Li # 9
    coordinates: [  0.620387632620165,  0.046411436772647,  0.947166892366609 ]
    mass: 6.940000
  - symbol: Ga # 10
    coordinates: [  0.535197948782713,  0.461644790942235,  0.788097982783881 ]
    mass: 69.723000
  - symbol: Ga # 11
    coordinates: [  0.035854700812883,  0.961977834963165,  0.788781302489407 ]
    mass: 69.723000
  - symbol: Sn # 12
    coordinates: [  0.036317795015816,  0.461864983838725,  0.288349112374809 ]
    mass: 118.710000
  reciprocal_lattice: # without 2pi
  - [     0.189313445292295,     0.100946112778973,     0.062712752069271 ] # a*
  - [     0.000000000000000,     0.214505908226845,     0.062651705214256 ] # b*
  - [     0.000000000000000,     0.000000000000000,     0.125695176696367 ] # c*

unit_cell:
  lattice:
  - [     5.282245000908539,     0.000000000000000,     0.000000000000000 ] # a
  - [    -2.485815444411836,     4.661876254440856,     0.000000000000000 ] # b
  - [    -1.396422275572177,    -2.323673067775014,     7.955754757524436 ] # c
  points:
  - symbol: Li # 1
    coordinates: [  0.451302214319143,  0.877730783675252,  0.629773687952019 ]
    mass: 6.940000
    reduced_to: 1
  - symbol: Li # 2
    coordinates: [  0.961576054571015,  0.386991218814368,  0.629753857368544 ]
    mass: 6.940000
    reduced_to: 2
  - symbol: Li # 3
    coordinates: [  0.948192586971333,  0.873242560402085,  0.112543232110951 ]
    mass: 6.940000
    reduced_to: 3
  - symbol: Li # 4
    coordinates: [  0.624010211572099,  0.550129519602413,  0.464598404195530 ]
    mass: 6.940000
    reduced_to: 4
  - symbol: Li # 5
    coordinates: [  0.448551225306942,  0.373881649740527,  0.112580802084187 ]
    mass: 6.940000
    reduced_to: 5
  - symbol: Li # 6
    coordinates: [  0.536557175094025,  0.961897121714524,  0.288335329191612 ]
    mass: 6.940000
    reduced_to: 6
  - symbol: Li # 7
    coordinates: [  0.110133067422274,  0.536303540449169,  0.946818123854937 ]
    mass: 6.940000
    reduced_to: 7
  - symbol: Li # 8
    coordinates: [  0.124459643807861,  0.049633356630319,  0.464041513139450 ]
    mass: 6.940000
    reduced_to: 8
  - symbol: Li # 9
    coordinates: [  0.620387632620165,  0.046411436772647,  0.947166892366609 ]
    mass: 6.940000
    reduced_to: 9
  - symbol: Ga # 10
    coordinates: [  0.535197948782713,  0.461644790942235,  0.788097982783881 ]
    mass: 69.723000
    reduced_to: 10
  - symbol: Ga # 11
    coordinates: [  0.035854700812883,  0.961977834963165,  0.788781302489407 ]
    mass: 69.723000
    reduced_to: 11
  - symbol: Sn # 12
    coordinates: [  0.036317795015816,  0.461864983838725,  0.288349112374809 ]
    mass: 118.710000
    reduced_to: 12

supercell:
  lattice:
  - [    10.564490001817077,     0.000000000000000,     0.000000000000000 ] # a
  - [    -4.971630888823672,     9.323752508881713,     0.000000000000000 ] # b
  - [    -2.792844551144353,    -4.647346135550029,    15.911509515048872 ] # c
  points:
  - symbol: Li # 1
    coordinates: [  0.225651107159572,  0.438865391837626,  0.314886843976009 ]
    mass: 6.940000
    reduced_to: 1
  - symbol: Li # 2
    coordinates: [  0.725651107159571,  0.438865391837626,  0.314886843976009 ]
    mass: 6.940000
    reduced_to: 1
  - symbol: Li # 3
    coordinates: [  0.225651107159572,  0.938865391837626,  0.314886843976009 ]
    mass: 6.940000
    reduced_to: 1
  - symbol: Li # 4
    coordinates: [  0.725651107159571,  0.938865391837626,  0.314886843976009 ]
    mass: 6.940000
    reduced_to: 1
  - symbol: Li # 5
    coordinates: [  0.225651107159572,  0.438865391837626,  0.814886843976009 ]
    mass: 6.940000
    reduced_to: 1
  - symbol: Li # 6
    coordinates: [  0.725651107159571,  0.438865391837626,  0.814886843976009 ]
    mass: 6.940000
    reduced_to: 1
  - symbol: Li # 7
    coordinates: [  0.225651107159572,  0.938865391837626,  0.814886843976009 ]
    mass: 6.940000
    reduced_to: 1
  - symbol: Li # 8
    coordinates: [  0.725651107159571,  0.938865391837626,  0.814886843976009 ]
    mass: 6.940000
    reduced_to: 1
  - symbol: Li # 9
    coordinates: [  0.480788027285507,  0.193495609407184,  0.314876928684272 ]
    mass: 6.940000
    reduced_to: 9
  - symbol: Li # 10
    coordinates: [  0.980788027285507,  0.193495609407184,  0.314876928684272 ]
    mass: 6.940000
    reduced_to: 9
  - symbol: Li # 11
    coordinates: [  0.480788027285507,  0.693495609407184,  0.314876928684272 ]
    mass: 6.940000
    reduced_to: 9
  - symbol: Li # 12
    coordinates: [  0.980788027285507,  0.693495609407184,  0.314876928684272 ]
    mass: 6.940000
    reduced_to: 9
  - symbol: Li # 13
    coordinates: [  0.480788027285507,  0.193495609407184,  0.814876928684272 ]
    mass: 6.940000
    reduced_to: 9
  - symbol: Li # 14
    coordinates: [  0.980788027285507,  0.193495609407184,  0.814876928684272 ]
    mass: 6.940000
    reduced_to: 9
  - symbol: Li # 15
    coordinates: [  0.480788027285507,  0.693495609407184,  0.814876928684272 ]
    mass: 6.940000
    reduced_to: 9
  - symbol: Li # 16
    coordinates: [  0.980788027285507,  0.693495609407184,  0.814876928684272 ]
    mass: 6.940000
    reduced_to: 9
  - symbol: Li # 17
    coordinates: [  0.474096293485666,  0.436621280201043,  0.056271616055476 ]
    mass: 6.940000
    reduced_to: 17
  - symbol: Li # 18
    coordinates: [  0.974096293485666,  0.436621280201043,  0.056271616055476 ]
    mass: 6.940000
    reduced_to: 17
  - symbol: Li # 19
    coordinates: [  0.474096293485666,  0.936621280201043,  0.056271616055476 ]
    mass: 6.940000
    reduced_to: 17
  - symbol: Li # 20
    coordinates: [  0.974096293485666,  0.936621280201043,  0.056271616055476 ]
    mass: 6.940000
    reduced_to: 17
  - symbol: Li # 21
    coordinates: [  0.474096293485666,  0.436621280201043,  0.556271616055476 ]
    mass: 6.940000
    reduced_to: 17
  - symbol: Li # 22
    coordinates: [  0.974096293485666,  0.436621280201043,  0.556271616055476 ]
    mass: 6.940000
    reduced_to: 17
  - symbol: Li # 23
    coordinates: [  0.474096293485666,  0.936621280201043,  0.556271616055476 ]
    mass: 6.940000
    reduced_to: 17
  - symbol: Li # 24
    coordinates: [  0.974096293485666,  0.936621280201043,  0.556271616055476 ]
    mass: 6.940000
    reduced_to: 17
  - symbol: Li # 25
    coordinates: [  0.312005105786050,  0.275064759801206,  0.232299202097765 ]
    mass: 6.940000
    reduced_to: 25
  - symbol: Li # 26
    coordinates: [  0.812005105786050,  0.275064759801206,  0.232299202097765 ]
    mass: 6.940000
    reduced_to: 25
  - symbol: Li # 27
    coordinates: [  0.312005105786050,  0.775064759801206,  0.232299202097765 ]
    mass: 6.940000
    reduced_to: 25
  - symbol: Li # 28
    coordinates: [  0.812005105786050,  0.775064759801206,  0.232299202097765 ]
    mass: 6.940000
    reduced_to: 25
  - symbol: Li # 29
    coordinates: [  0.312005105786050,  0.275064759801206,  0.732299202097765 ]
    mass: 6.940000
    reduced_to: 25
  - symbol: Li # 30
    coordinates: [  0.812005105786050,  0.275064759801206,  0.732299202097765 ]
    mass: 6.940000
    reduced_to: 25
  - symbol: Li # 31
    coordinates: [  0.312005105786050,  0.775064759801206,  0.732299202097765 ]
    mass: 6.940000
    reduced_to: 25
  - symbol: Li # 32
    coordinates: [  0.812005105786050,  0.775064759801206,  0.732299202097765 ]
    mass: 6.940000
    reduced_to: 25
  - symbol: Li # 33
    coordinates: [  0.224275612653471,  0.186940824870264,  0.056290401042093 ]
    mass: 6.940000
    reduced_to: 33
  - symbol: Li # 34
    coordinates: [  0.724275612653471,  0.186940824870264,  0.056290401042093 ]
    mass: 6.940000
    reduced_to: 33
  - symbol: Li # 35
    coordinates: [  0.224275612653471,  0.686940824870264,  0.056290401042093 ]
    mass: 6.940000
    reduced_to: 33
  - symbol: Li # 36
    coordinates: [  0.724275612653471,  0.686940824870264,  0.056290401042093 ]
    mass: 6.940000
    reduced_to: 33
  - symbol: Li # 37
    coordinates: [  0.224275612653471,  0.186940824870264,  0.556290401042093 ]
    mass: 6.940000
    reduced_to: 33
  - symbol: Li # 38
    coordinates: [  0.724275612653471,  0.186940824870264,  0.556290401042093 ]
    mass: 6.940000
    reduced_to: 33
  - symbol: Li # 39
    coordinates: [  0.224275612653471,  0.686940824870264,  0.556290401042093 ]
    mass: 6.940000
    reduced_to: 33
  - symbol: Li # 40
    coordinates: [  0.724275612653471,  0.686940824870264,  0.556290401042093 ]
    mass: 6.940000
    reduced_to: 33
  - symbol: Li # 41
    coordinates: [  0.268278587547013,  0.480948560857262,  0.144167664595806 ]
    mass: 6.940000
    reduced_to: 41
  - symbol: Li # 42
    coordinates: [  0.768278587547013,  0.480948560857262,  0.144167664595806 ]
    mass: 6.940000
    reduced_to: 41
  - symbol: Li # 43
    coordinates: [  0.268278587547013,  0.980948560857262,  0.144167664595806 ]
    mass: 6.940000
    reduced_to: 41
  - symbol: Li # 44
    coordinates: [  0.768278587547013,  0.980948560857262,  0.144167664595806 ]
    mass: 6.940000
    reduced_to: 41
  - symbol: Li # 45
    coordinates: [  0.268278587547013,  0.480948560857262,  0.644167664595806 ]
    mass: 6.940000
    reduced_to: 41
  - symbol: Li # 46
    coordinates: [  0.768278587547013,  0.480948560857262,  0.644167664595806 ]
    mass: 6.940000
    reduced_to: 41
  - symbol: Li # 47
    coordinates: [  0.268278587547013,  0.980948560857262,  0.644167664595806 ]
    mass: 6.940000
    reduced_to: 41
  - symbol: Li # 48
    coordinates: [  0.768278587547013,  0.980948560857262,  0.644167664595806 ]
    mass: 6.940000
    reduced_to: 41
  - symbol: Li # 49
    coordinates: [  0.055066533711137,  0.268151770224585,  0.473409061927468 ]
    mass: 6.940000
    reduced_to: 49
  - symbol: Li # 50
    coordinates: [  0.555066533711137,  0.268151770224585,  0.473409061927468 ]
    mass: 6.940000
    reduced_to: 49
  - symbol: Li # 51
    coordinates: [  0.055066533711137,  0.768151770224585,  0.473409061927468 ]
    mass: 6.940000
    reduced_to: 49
  - symbol: Li # 52
    coordinates: [  0.555066533711137,  0.768151770224585,  0.473409061927468 ]
    mass: 6.940000
    reduced_to: 49
  - symbol: Li # 53
    coordinates: [  0.055066533711137,  0.268151770224585,  0.973409061927468 ]
    mass: 6.940000
    reduced_to: 49
  - symbol: Li # 54
    coordinates: [  0.555066533711137,  0.268151770224585,  0.973409061927468 ]
    mass: 6.940000
    reduced_to: 49
  - symbol: Li # 55
    coordinates: [  0.055066533711137,  0.768151770224585,  0.973409061927468 ]
    mass: 6.940000
    reduced_to: 49
  - symbol: Li # 56
    coordinates: [  0.555066533711137,  0.768151770224585,  0.973409061927468 ]
    mass: 6.940000
    reduced_to: 49
  - symbol: Li # 57
    coordinates: [  0.062229821903930,  0.024816678315160,  0.232020756569725 ]
    mass: 6.940000
    reduced_to: 57
  - symbol: Li # 58
    coordinates: [  0.562229821903930,  0.024816678315160,  0.232020756569725 ]
    mass: 6.940000
    reduced_to: 57
  - symbol: Li # 59
    coordinates: [  0.062229821903930,  0.524816678315160,  0.232020756569725 ]
    mass: 6.940000
    reduced_to: 57
  - symbol: Li # 60
    coordinates: [  0.562229821903930,  0.524816678315160,  0.232020756569725 ]
    mass: 6.940000
    reduced_to: 57
  - symbol: Li # 61
    coordinates: [  0.062229821903930,  0.024816678315160,  0.732020756569725 ]
    mass: 6.940000
    reduced_to: 57
  - symbol: Li # 62
    coordinates: [  0.562229821903930,  0.024816678315160,  0.732020756569725 ]
    mass: 6.940000
    reduced_to: 57
  - symbol: Li # 63
    coordinates: [  0.062229821903930,  0.524816678315160,  0.732020756569725 ]
    mass: 6.940000
    reduced_to: 57
  - symbol: Li # 64
    coordinates: [  0.562229821903930,  0.524816678315160,  0.732020756569725 ]
    mass: 6.940000
    reduced_to: 57
  - symbol: Li # 65
    coordinates: [  0.310193816310082,  0.023205718386323,  0.473583446183304 ]
    mass: 6.940000
    reduced_to: 65
  - symbol: Li # 66
    coordinates: [  0.810193816310082,  0.023205718386323,  0.473583446183304 ]
    mass: 6.940000
    reduced_to: 65
  - symbol: Li # 67
    coordinates: [  0.310193816310082,  0.523205718386323,  0.473583446183304 ]
    mass: 6.940000
    reduced_to: 65
  - symbol: Li # 68
    coordinates: [  0.810193816310082,  0.523205718386323,  0.473583446183304 ]
    mass: 6.940000
    reduced_to: 65
  - symbol: Li # 69
    coordinates: [  0.310193816310082,  0.023205718386323,  0.973583446183304 ]
    mass: 6.940000
    reduced_to: 65
  - symbol: Li # 70
    coordinates: [  0.810193816310082,  0.023205718386323,  0.973583446183304 ]
    mass: 6.940000
    reduced_to: 65
  - symbol: Li # 71
    coordinates: [  0.310193816310082,  0.523205718386323,  0.973583446183304 ]
    mass: 6.940000
    reduced_to: 65
  - symbol: Li # 72
    coordinates: [  0.810193816310082,  0.523205718386323,  0.973583446183304 ]
    mass: 6.940000
    reduced_to: 65
  - symbol: Ga # 73
    coordinates: [  0.267598974391357,  0.230822395471117,  0.394048991391941 ]
    mass: 69.723000
    reduced_to: 73
  - symbol: Ga # 74
    coordinates: [  0.767598974391357,  0.230822395471117,  0.394048991391941 ]
    mass: 69.723000
    reduced_to: 73
  - symbol: Ga # 75
    coordinates: [  0.267598974391357,  0.730822395471117,  0.394048991391941 ]
    mass: 69.723000
    reduced_to: 73
  - symbol: Ga # 76
    coordinates: [  0.767598974391357,  0.730822395471117,  0.394048991391941 ]
    mass: 69.723000
    reduced_to: 73
  - symbol: Ga # 77
    coordinates: [  0.267598974391357,  0.230822395471117,  0.894048991391940 ]
    mass: 69.723000
    reduced_to: 73
  - symbol: Ga # 78
    coordinates: [  0.767598974391357,  0.230822395471117,  0.894048991391940 ]
    mass: 69.723000
    reduced_to: 73
  - symbol: Ga # 79
    coordinates: [  0.267598974391357,  0.730822395471117,  0.894048991391940 ]
    mass: 69.723000
    reduced_to: 73
  - symbol: Ga # 80
    coordinates: [  0.767598974391357,  0.730822395471117,  0.894048991391940 ]
    mass: 69.723000
    reduced_to: 73
  - symbol: Ga # 81
    coordinates: [  0.017927350406442,  0.480988917481582,  0.394390651244703 ]
    mass: 69.723000
    reduced_to: 81
  - symbol: Ga # 82
    coordinates: [  0.517927350406442,  0.480988917481582,  0.394390651244703 ]
    mass: 69.723000
    reduced_to: 81
  - symbol: Ga # 83
    coordinates: [  0.017927350406442,  0.980988917481582,  0.394390651244703 ]
    mass: 69.723000
    reduced_to: 81
  - symbol: Ga # 84
    coordinates: [  0.517927350406442,  0.980988917481582,  0.394390651244703 ]
    mass: 69.723000
    reduced_to: 81
  - symbol: Ga # 85
    coordinates: [  0.017927350406442,  0.480988917481582,  0.894390651244703 ]
    mass: 69.723000
    reduced_to: 81
  - symbol: Ga # 86
    coordinates: [  0.517927350406442,  0.480988917481582,  0.894390651244703 ]
    mass: 69.723000
    reduced_to: 81
  - symbol: Ga # 87
    coordinates: [  0.017927350406442,  0.980988917481582,  0.894390651244703 ]
    mass: 69.723000
    reduced_to: 81
  - symbol: Ga # 88
    coordinates: [  0.517927350406442,  0.980988917481582,  0.894390651244703 ]
    mass: 69.723000
    reduced_to: 81
  - symbol: Sn # 89
    coordinates: [  0.018158897507908,  0.230932491919363,  0.144174556187404 ]
    mass: 118.710000
    reduced_to: 89
  - symbol: Sn # 90
    coordinates: [  0.518158897507908,  0.230932491919363,  0.144174556187404 ]
    mass: 118.710000
    reduced_to: 89
  - symbol: Sn # 91
    coordinates: [  0.018158897507908,  0.730932491919362,  0.144174556187404 ]
    mass: 118.710000
    reduced_to: 89
  - symbol: Sn # 92
    coordinates: [  0.518158897507908,  0.730932491919362,  0.144174556187404 ]
    mass: 118.710000
    reduced_to: 89
  - symbol: Sn # 93
    coordinates: [  0.018158897507908,  0.230932491919363,  0.644174556187404 ]
    mass: 118.710000
    reduced_to: 89
  - symbol: Sn # 94
    coordinates: [  0.518158897507908,  0.230932491919363,  0.644174556187404 ]
    mass: 118.710000
    reduced_to: 89
  - symbol: Sn # 95
    coordinates: [  0.018158897507908,  0.730932491919362,  0.644174556187404 ]
    mass: 118.710000
    reduced_to: 89
  - symbol: Sn # 96
    coordinates: [  0.518158897507908,  0.730932491919362,  0.644174556187404 ]
    mass: 118.710000
    reduced_to: 89

displacements:
- atom:    1
  displacement:
    [   0.0100000000000000,  0.0000000000000000,  0.0000000000000000 ]
  forces:
  - [  -0.0087011903524399,  0.0135923186317086,  0.0572378560900688 ]
  - [   0.0116221308708191,  0.0124614145606756,  0.0573945865035057 ]
  - [   0.0113438740372658,  0.0123140364885330,  0.0573614500463009 ]
  - [   0.0113648315891623,  0.0123644452542067,  0.0573868192732334 ]
  - [   0.0114673078060150,  0.0123684536665678,  0.0573914684355259 ]
  - [   0.0114654153585434,  0.0123673593625426,  0.0573935732245445 ]
  - [   0.0114658642560244,  0.0123676694929600,  0.0573971197009087 ]
  - [   0.0114613072946668,  0.0123591851443052,  0.0573942288756371 ]
  - [  -0.0103424247354269, -0.0144946807995439,  0.0498324483633041 ]
  - [  -0.0083053996786475, -0.0101836360991001,  0.0499409735202789 ]
  - [  -0.0087484065443277, -0.0113610401749611,  0.0501877442002296 ]
  - [  -0.0103621147572994, -0.0145052308216691,  0.0502215661108494 ]
  - [  -0.0103033687919378, -0.0145119791850448,  0.0500354915857315 ]
  - [  -0.0102999936789274, -0.0145123880356550,  0.0500400662422180 ]
  - [  -0.0102999927476048, -0.0145111856982112,  0.0500260740518570 ]
  - [  -0.0103026740252972, -0.0145191568881273,  0.0500412583351135 ]
  - [  -0.0038936953060329,  0.0079809138551354, -0.0905366241931915 ]
  - [  -0.0038799094036222,  0.0078720664605498, -0.0906990468502045 ]
  - [  -0.0038384418003261,  0.0079321349039674, -0.0905534401535988 ]
  - [  -0.0039079170674086,  0.0079524880275130, -0.0905208289623260 ]
  - [  -0.0038486323319376,  0.0079034445807338, -0.0902713686227798 ]
  - [  -0.0037850169464946,  0.0079468814656138, -0.0905041322112083 ]
  - [  -0.0038619311526418,  0.0079484814777970, -0.0904245600104332 ]
  - [  -0.0038405959494412,  0.0079475715756416, -0.0905679091811180 ]
  - [   0.0088551025837660, -0.0027898636180907,  0.0830661058425903 ]
  - [   0.0029767211526632,  0.0004211185732856,  0.0869735851883888 ]
  - [   0.0037809587083757,  0.0008012598846108,  0.0873418450355530 ]
  - [   0.0036445939913392,  0.0006732321344316,  0.0873059406876564 ]
  - [   0.0035709077492356,  0.0007119418587536,  0.0873269364237785 ]
  - [   0.0035614455118775,  0.0007151993922889,  0.0873202607035637 ]
  - [   0.0035840645432472,  0.0007122522220016,  0.0872881338000298 ]
  - [   0.0035534594208002,  0.0007164878770709,  0.0873316749930382 ]
  - [  -0.0087631829082966, -0.0002952707000077, -0.0886124297976494 ]
  - [  -0.0084967277944088, -0.0003368249163032, -0.0888315141201019 ]
  - [  -0.0086750453338027, -0.0004225358134136, -0.0889402329921722 ]
  - [  -0.0086242193356156, -0.0003820216516033, -0.0889300629496574 ]
  - [  -0.0086351372301579, -0.0003941460745409, -0.0890889242291451 ]
  - [  -0.0086162071675062, -0.0003964587813243, -0.0889616087079048 ]
  - [  -0.0085962265729904, -0.0004500951617956, -0.0892254114151001 ]
  - [  -0.0085837319493294, -0.0003865342587233, -0.0890266150236130 ]
  - [  -0.0024862219579518, -0.0013800484593958, -0.0002505856682546 ]
  - [  -0.0027374182827771, -0.0013527665287256,  0.0004087847191840 ]
  - [  -0.0028894036076963, -0.0014772668946534,  0.0003858570416924 ]
  - [  -0.0028048376552761, -0.0013406269717962,  0.0003807784523815 ]
  - [  -0.0028386493213475, -0.0013745940523222,  0.0003913493128493 ]
  - [  -0.0027763126417994, -0.0014183653984219,  0.0004250479105394 ]
  - [  -0.0027997680008411, -0.0014297042507678,  0.0003784225264098 ]
  - [  -0.0028224412817508, -0.0014199679717422,  0.0004124120168854 ]
  - [   0.0135743943974376,  0.0135524906218052, -0.0501304566860199 ]
  - [   0.0138598717749119,  0.0135212764143944, -0.0502616316080093 ]
  - [   0.0138541292399168,  0.0135815106332302, -0.0506322793662548 ]
  - [   0.0135752391070127,  0.0135517027229071, -0.0507846921682358 ]
  - [   0.0135910939425230,  0.0136712491512299, -0.0503856800496578 ]
  - [   0.0136627778410912,  0.0136799607425928, -0.0504408255219460 ]
  - [   0.0136345056816936,  0.0136669892817736, -0.0504491031169891 ]
  - [   0.0136571805924177,  0.0136737031862140, -0.0504440367221832 ]
  - [  -0.0058549768291414,  0.0018470543436706,  0.0900685265660286 ]
  - [  -0.0059554902836680,  0.0015091286040843,  0.0901620537042618 ]
  - [  -0.0009756232611835, -0.0021680460777134,  0.0942308157682419 ]
  - [  -0.0065213320776820,  0.0013708858750761,  0.0902489125728607 ]
  - [  -0.0060175466351211,  0.0015696396585554,  0.0901797488331795 ]
  - [  -0.0060144569724798,  0.0015564560890198,  0.0901622027158737 ]
  - [  -0.0060129058547318,  0.0015683169476688,  0.0901649594306946 ]
  - [  -0.0060208663344383,  0.0015733703039587,  0.0901969671249390 ]
  - [  -0.0063249636441469, -0.0189703665673733, -0.0560785904526711 ]
  - [  -0.0060865059494972, -0.0193400606513023, -0.0560738742351532 ]
  - [  -0.0073122493922710, -0.0192189123481512, -0.0559282898902893 ]
  - [  -0.0068071847781539, -0.0192258022725582, -0.0560727864503860 ]
  - [  -0.0060402564704418, -0.0193344969302416, -0.0561034157872200 ]
  - [  -0.0060195941478014, -0.0193121992051601, -0.0560116767883301 ]
  - [  -0.0060522966086864, -0.0193140655755997, -0.0560840554535389 ]
  - [  -0.0060382150113583, -0.0193323791027069, -0.0560318715870380 ]
  - [   0.0072896494530141,  0.0005549589404836,  0.0057657351717353 ]
  - [   0.0068839406594634,  0.0026547254528850,  0.0049756150692701 ]
  - [   0.0071325548924506,  0.0007887864485383,  0.0046931980177760 ]
  - [   0.0069380211643875,  0.0026792793069035,  0.0053459415212274 ]
  - [   0.0063470653258264,  0.0022495640441775,  0.0051094465889037 ]
  - [   0.0063104834407568,  0.0022683599963784,  0.0050959507934749 ]
  - [   0.0063249482773244,  0.0022525833919644,  0.0051433960907161 ]
  - [   0.0063351839780807,  0.0022390850353986,  0.0051027024164796 ]
  - [   0.0037000803276896, -0.0011550268391147, -0.0065833162516356 ]
  - [   0.0034342152066529, -0.0011113000800833, -0.0050892881117761 ]
  - [   0.0010373990517110, -0.0017558836843818, -0.0057293372228742 ]
  - [   0.0010436499724165, -0.0016921930946410, -0.0058337920345366 ]
  - [   0.0010799362789840, -0.0015801531262696, -0.0058388304896653 ]
  - [   0.0010808664374053, -0.0015850827330723, -0.0058294292539358 ]
  - [   0.0011082079727203, -0.0016011188272387, -0.0058807232417166 ]
  - [   0.0010627522133291, -0.0015789276221767, -0.0058150310069323 ]
  - [   0.0023805152159184, -0.0010991115123034,  0.0020824747625738 ]
  - [   0.0015966468490660, -0.0013914518058300,  0.0013838170561939 ]
  - [   0.0015776744112372, -0.0011378242634237,  0.0013311507645994 ]
  - [   0.0015570987015963, -0.0013068660628051,  0.0013741219881922 ]
  - [   0.0016045350348577, -0.0013136221095920,  0.0013926851097494 ]
  - [   0.0015917583368719, -0.0012684231624007,  0.0013570870505646 ]
  - [   0.0015528169460595, -0.0012984066270292,  0.0014161819126457 ]
  - [   0.0016244798898697, -0.0012733514886349,  0.0014546369202435 ]
- atom:    1
  displacement:
    [  -0.0100000000000000,  0.0000000000000000,  0.0000000000000000 ]
  forces:
  - [   0.0316001810133457,  0.0111392531543970,  0.0575671158730984 ]
  - [   0.0113080181181431,  0.0122703220695257,  0.0573930442333221 ]
  - [   0.0115847680717707,  0.0124185485765338,  0.0574273057281971 ]
  - [   0.0115621574223042,  0.0123700303956866,  0.0574052408337593 ]
  - [   0.0114609710872173,  0.0123651567846537,  0.0573961995542049 ]
  - [   0.0114646712318063,  0.0123668992891908,  0.0573943965137005 ]
  - [   0.0114635061472654,  0.0123660229146481,  0.0573909208178520 ]
  - [   0.0114674344658852,  0.0123743386939168,  0.0573937892913818 ]
  - [  -0.0102544650435448, -0.0145356804132462,  0.0502450689673424 ]
  - [  -0.0122844576835632, -0.0188809558749199,  0.0501353740692139 ]
  - [  -0.0118557270616293, -0.0176363624632359,  0.0498907640576363 ]
  - [  -0.0102478694170713, -0.0145162194967270,  0.0498559810221195 ]
  - [  -0.0102998157963157, -0.0145190842449665,  0.0500385016202927 ]
  - [  -0.0103019922971725, -0.0145175494253635,  0.0500336363911629 ]
  - [  -0.0103023154661059, -0.0145162101835012,  0.0500491373240948 ]
  - [  -0.0102992048487067, -0.0145123600959778,  0.0500328429043293 ]
  - [  -0.0038460572250187,  0.0079187881201506, -0.0905558764934540 ]
  - [  -0.0038573322817683,  0.0080279270187020, -0.0903935283422470 ]
  - [  -0.0039088199846447,  0.0079732071608305, -0.0905514061450958 ]
  - [  -0.0038375803269446,  0.0079519767314196, -0.0905831232666969 ]
  - [  -0.0038918410427868,  0.0079986648634076, -0.0908164605498314 ]
  - [  -0.0039570224471390,  0.0079559739679098, -0.0905879065394402 ]
  - [  -0.0038796081207693,  0.0079518435522914, -0.0906683281064034 ]
  - [  -0.0038999007083476,  0.0079546626657248, -0.0905243828892708 ]
  - [  -0.0016579231014475,  0.0041503300890326,  0.0914966464042664 ]
  - [   0.0041757309809327,  0.0010180177632719,  0.0876690149307251 ]
  - [   0.0033503514714539,  0.0006249048747122,  0.0872975513339043 ]
  - [   0.0034910580143332,  0.0007542015518993,  0.0873325839638710 ]
  - [   0.0035636005923152,  0.0007161012617871,  0.0873075723648071 ]
  - [   0.0035742344334722,  0.0007137306965888,  0.0873149856925011 ]
  - [   0.0035497620701790,  0.0007150373421609,  0.0873454138636589 ]
  - [   0.0035809651017189,  0.0007113264873624,  0.0873025879263878 ]
  - [  -0.0085218818858266, -0.0004793641855940, -0.0893371179699898 ]
  - [  -0.0087893772870302, -0.0004378799349070, -0.0891224443912506 ]
  - [  -0.0086116287857294, -0.0003518541343510, -0.0890144854784012 ]
  - [  -0.0086593776941299, -0.0003928254591301, -0.0890246704220772 ]
  - [  -0.0086495559662580, -0.0003808654146269, -0.0888669863343239 ]
  - [  -0.0086676636710763, -0.0003791764611378, -0.0889922827482224 ]
  - [  -0.0086894016712904, -0.0003260215744376, -0.0887247696518898 ]
  - [  -0.0086991302669048, -0.0003913743421435, -0.0889275819063187 ]
  - [  -0.0031329451594502, -0.0014499828685075,  0.0010663312859833 ]
  - [  -0.0028745504096150, -0.0014748217072338,  0.0003969055251218 ]
  - [  -0.0027226272504777, -0.0013498158659786,  0.0004179763491265 ]
  - [  -0.0028059505857527, -0.0014839764917269,  0.0004261342110112 ]
  - [  -0.0027729403227568, -0.0014507010346279,  0.0004154149210081 ]
  - [  -0.0028354935348034, -0.0014072798658162,  0.0003829060005955 ]
  - [  -0.0028137098997831, -0.0013965818798169,  0.0004292195080779 ]
  - [  -0.0027904729358852, -0.0014063762500882,  0.0003960681206081 ]
  - [   0.0137386927381158,  0.0138049442321062, -0.0507745929062366 ]
  - [   0.0134562356397510,  0.0138359777629375, -0.0506411977112293 ]
  - [   0.0134549774229527,  0.0137787880375981, -0.0502698868513107 ]
  - [   0.0137378526851535,  0.0138076022267342, -0.0501216165721416 ]
  - [   0.0137196686118841,  0.0136847523972392, -0.0505162961781025 ]
  - [   0.0136500578373671,  0.0136754922568798, -0.0504613369703293 ]
  - [   0.0136762429028749,  0.0136916115880013, -0.0504529029130936 ]
  - [   0.0136545812711120,  0.0136815262958407, -0.0504592135548592 ]
  - [  -0.0061757140792906,  0.0012892854865640,  0.0902892798185349 ]
  - [  -0.0060752001591027,  0.0016273651272058,  0.0901953577995300 ]
  - [  -0.0111145321279764,  0.0053751412779093,  0.0860394537448883 ]
  - [  -0.0055308165028691,  0.0017588832415640,  0.0901032090187073 ]
  - [  -0.0060149119235575,  0.0015649818815291,  0.0901751741766930 ]
  - [  -0.0060173380188644,  0.0015776033978909,  0.0901921838521957 ]
  - [  -0.0060199084691703,  0.0015652133151889,  0.0901902765035629 ]
  - [  -0.0060121705755591,  0.0015599559992552,  0.0901576578617096 ]
  - [  -0.0057995393872261, -0.0196891687810421, -0.0560717806220055 ]
  - [  -0.0060372538864613, -0.0193188078701496, -0.0560769736766815 ]
  - [  -0.0048139831051230, -0.0194425992667675, -0.0562669336795807 ]
  - [  -0.0053165275603533, -0.0194332376122475, -0.0560801178216934 ]
  - [  -0.0060830120928586, -0.0193252228200436, -0.0560463331639767 ]
  - [  -0.0061039254069328, -0.0193474851548672, -0.0561388954520226 ]
  - [  -0.0060714362189174, -0.0193451419472694, -0.0560676939785480 ]