# Thermal properties / unit cell (natom)

unit:
  temperature:   K
  free_energy:   kJ/mol
  entropy:       J/K/mol
  heat_capacity: J/K/mol

natom: 16   
cutoff_frequency: 0.00000
num_modes: 150528
num_integrated_modes: 150147

zero_point_energy:      46.1554306

thermal_properties:
- temperature:         0.0000000
  free_energy:        46.1554306
  entropy:             0.0000000
  heat_capacity:       0.0000000
  energy:             46.1554306

- temperature:        10.0000000
  free_energy:        46.1458261
  entropy:             3.4163650
  heat_capacity:       9.1430887
  energy:             46.1799897

- temperature:        20.0000000
  free_energy:        46.0374587
  entropy:            20.9974641
  heat_capacity:      50.3972772
  energy:             46.4574080

- temperature:        30.0000000
  free_energy:        45.6860886
  entropy:            50.3897038
  heat_capacity:      95.9562567
  energy:             47.1977797

- temperature:        40.0000000
  free_energy:        45.0200377
  entropy:            82.8845420
  heat_capacity:     129.7884967
  energy:             48.3354194

- temperature:        50.0000000
  free_energy:        44.0308081
  entropy:           114.7487206
  heat_capacity:     155.9704659
  energy:             49.7682441

- temperature:        60.0000000
  free_energy:        42.7296813
  entropy:           145.2488494
  heat_capacity:     178.9827969
  energy:             51.4446122

- temperature:        70.0000000
  free_energy:        41.1300944
  entropy:           174.4704644
  heat_capacity:     200.4860992
  energy:             53.3430269

- temperature:        80.0000000
  free_energy:        39.2439913
  entropy:           202.5735974
  heat_capacity:     220.6424525
  energy:             55.4498791

- temperature:        90.0000000
  free_energy:        37.0820367
  entropy:           229.6506557
  heat_capacity:     239.2175635
  energy:             57.7505957

- temperature:       100.0000000
  free_energy:        34.6542665
  entropy:           255.7405025
  heat_capacity:     256.0237156
  energy:             60.2283168

- temperature:       110.0000000
  free_energy:        31.9704627
  entropy:           280.8594795
  heat_capacity:     271.0143980
  energy:             62.8650054

- temperature:       120.0000000
  free_energy:        29.0402695
  entropy:           305.0208904
  heat_capacity:     284.2587939
  energy:             65.6427764

- temperature:       130.0000000
  free_energy:        25.8731754
  entropy:           328.2433863
  heat_capacity:     295.8944360
  energy:             68.5448157

- temperature:       140.0000000
  free_energy:        22.4784456
  entropy:           350.5529616
  heat_capacity:     306.0887434
  energy:             71.5558602

- temperature:       150.0000000
  free_energy:        18.8650516
  entropy:           371.9820710
  heat_capacity:     315.0142529
  energy:             74.6623623

- temperature:       160.0000000
  free_energy:        15.0416157
  entropy:           392.5678011
  heat_capacity:     322.8348286
  energy:             77.8524639

- temperature:       170.0000000
  free_energy:        11.0163742
  entropy:           412.3499944
  heat_capacity:     329.6991266
  energy:             81.1158732

- temperature:       180.0000000
  free_energy:         6.7971576
  entropy:           431.3696702
  heat_capacity:     335.7383729
  energy:             84.4436982

- temperature:       190.0000000
  free_energy:         2.3913857
  entropy:           449.6678227
  heat_capacity:     341.0664989
  energy:             87.8282720

- temperature:       200.0000000
  free_energy:        -2.1939277
  entropy:           467.2845674
  heat_capacity:     345.7814348
  energy:             91.2629858

- temperature:       210.0000000
  free_energy:        -6.9521634
  entropy:           484.2585737
  heat_capacity:     349.9668744
  energy:             94.7421371

- temperature:       220.0000000
  free_energy:       -11.8770798
  entropy:           500.6267138
  heat_capacity:     353.6941368
  energy:             98.2607972

- temperature:       230.0000000
  free_energy:       -16.9627946
  entropy:           516.4238720
  heat_capacity:     357.0239364
  energy:            101.8146960

- temperature:       240.0000000
  free_energy:       -22.2037636
  entropy:           531.6828661
  heat_capacity:     360.0079768
  energy:            105.4001242

- temperature:       250.0000000
  free_energy:       -27.5947608
  entropy:           546.4344456
  heat_capacity:     362.6903438
  energy:            109.0138506

- temperature:       260.0000000
  free_energy:       -33.1308571
  entropy:           560.7073416
  heat_capacity:     365.1086979
  energy:            112.6530517

- temperature:       270.0000000
  free_energy:       -38.8074015
  entropy:           574.5283484
  heat_capacity:     367.2952859
  energy:            116.3152526

- temperature:       280.0000000
  free_energy:       -44.6200012
  entropy:           587.9224241
  heat_capacity:     369.2777902
  energy:            119.9982775

- temperature:       290.0000000
  free_energy:       -50.5645045
  entropy:           600.9128013
  heat_capacity:     371.0800415
  energy:            123.7002079

- temperature:       300.0000000
  free_energy:       -56.6369838
  entropy:           613.5211007
  heat_capacity:     372.7226138
  energy:            127.4193464

- temperature:       310.0000000
  free_energy:       -62.8337201
  entropy:           625.7674441
  heat_capacity:     374.2233217
  energy:            131.1541875

- temperature:       320.0000000
  free_energy:       -69.1511887
  entropy:           637.6705641
  heat_capacity:     375.5976364
  energy:            134.9033918

- temperature:       330.0000000
  free_energy:       -75.5860456
  entropy:           649.2479082
  heat_capacity:     376.8590334
  energy:            138.6657641

- temperature:       340.0000000
  free_energy:       -82.1351153
  entropy:           660.5157375
  heat_capacity:     378.0192842
  energy:            142.4402354

- temperature:       350.0000000
  free_energy:       -88.7953793
  entropy:           671.4892184
  heat_capacity:     379.0887008
  energy:            146.2258471

- temperature:       360.0000000
  free_energy:       -95.5639658
  entropy:           682.1825078
  heat_capacity:     380.0763425
  energy:            150.0217370

- temperature:       370.0000000
  free_energy:      -102.4381397
  entropy:           692.6088318
  heat_capacity:     380.9901894
  energy:            153.8271281

- temperature:       380.0000000
  free_energy:      -109.4152939
  entropy:           702.7805586
  heat_capacity:     381.8372899
  energy:            157.6413184

- temperature:       390.0000000
  free_energy:      -116.4929409
  entropy:           712.7092645
  heat_capacity:     382.6238856
  energy:            161.4636723

- temperature:       400.0000000
  free_energy:      -123.6687053
  entropy:           722.4057957
  heat_capacity:     383.3555170
  energy:            165.2936129

- temperature:       410.0000000
  free_energy:      -130.9403169
  entropy:           731.8803238
  heat_capacity:     384.0371151
  energy:            169.1306159

- temperature:       420.0000000
  free_energy:      -138.3056037
  entropy:           741.1423973
  heat_capacity:     384.6730779
  energy:            172.9742032

- temperature:       430.0000000
  free_energy:      -145.7624866
  entropy:           750.2009885
  heat_capacity:     385.2673377
  energy:            176.8239385

- temperature:       440.0000000
  free_energy:      -153.3089734
  entropy:           759.0645365
  heat_capacity:     385.8234176
  energy:            180.6794227

- temperature:       450.0000000
  free_energy:      -160.9431537
  entropy:           767.7409863
  heat_capacity:     386.3444813
  energy:            184.5402901

- temperature:       460.0000000
  free_energy:      -168.6631944
  entropy:           776.2378251
  heat_capacity:     386.8333751
  energy:            188.4062051

- temperature:       470.0000000
  free_energy:      -176.4673351
  entropy:           784.5621151
  heat_capacity:     387.2926654
  energy:            192.2768590

- temperature:       480.0000000
  free_energy:      -184.3538838
  entropy:           792.7205237
  heat_capacity:     387.7246706
  energy:            196.1519675

- temperature:       490.0000000
  free_energy:      -192.3212137
  entropy:           800.7193513
  heat_capacity:     388.1314886
  energy:            200.0312685

- temperature:       500.0000000
  free_energy:      -200.3677588
  entropy:           808.5645570
  heat_capacity:     388.5150216
  energy:            203.9145197

- temperature:       510.0000000
  free_energy:      -208.4920116
  entropy:           816.2617816
  heat_capacity:     388.8769974
  energy:            207.8014971

- temperature:       520.0000000
  free_energy:      -216.6925190
  entropy:           823.8163694
  heat_capacity:     389.2189877
  energy:            211.6919930

- temperature:       530.0000000
  free_energy:      -224.9678804
  entropy:           831.2333876
  heat_capacity:     389.5424250
  energy:            215.5858150

- temperature:       540.0000000
  free_energy:      -233.3167443
  entropy:           838.5176451
  heat_capacity:     389.8486167
  energy:            219.4827841

- temperature:       550.0000000
  free_energy:      -241.7378060
  entropy:           845.6737089
  heat_capacity:     390.1387579
  energy:            223.3827338

- temperature:       560.0000000
  free_energy:      -250.2298056
  entropy:           852.7059197
  heat_capacity:     390.4139428
  energy:            227.2855094

- temperature:       570.0000000
  free_energy:      -258.7915254
  entropy:           859.6184062
  heat_capacity:     390.6751747
  energy:            231.1909662

- temperature:       580.0000000
  free_energy:      -267.4217878
  entropy:           866.4150987
  heat_capacity:     390.9233747
  energy:            235.0989694

- temperature:       590.0000000
  free_energy:      -276.1194539
  entropy:           873.0997406
  heat_capacity:     391.1593895
  energy:            239.0093931

- temperature:       600.0000000
  free_energy:      -284.8834210
  entropy:           879.6759004
  heat_capacity:     391.3839990
  energy:            242.9221192

- temperature:       610.0000000
  free_energy:      -293.7126216
  entropy:           886.1469821
  heat_capacity:     391.5979216
  energy:            246.8370374

- temperature:       620.0000000
  free_energy:      -302.6060213
  entropy:           892.5162347
  heat_capacity:     391.8018207
  energy:            250.7540442

- temperature:       630.0000000
  free_energy:      -311.5626172
  entropy:           898.7867615
  heat_capacity:     391.9963093
  energy:            254.6730425

- temperature:       640.0000000
  free_energy:      -320.5814373
  entropy:           904.9615285
  heat_capacity:     392.1819544
  energy:            258.5939410

- temperature:       650.0000000
  free_energy:      -329.6615381
  entropy:           911.0433722
  heat_capacity:     392.3592811
  energy:            262.5166539

- temperature:       660.0000000
  free_energy:      -338.8020041
  entropy:           917.0350069
  heat_capacity:     392.5287766
  energy:            266.4411005

- temperature:       670.0000000
  free_energy:      -348.0019462
  entropy:           922.9390313
  heat_capacity:     392.6908929
  energy:            270.3672048

- temperature:       680.0000000
  free_energy:      -357.2605010
  entropy:           928.7579354
  heat_capacity:     392.8460500
  energy:            274.2948951

- temperature:       690.0000000
  free_energy:      -366.5768291
  entropy:           934.4941059
  heat_capacity:     392.9946388
  energy:            278.2241039

- temperature:       700.0000000
  free_energy:      -375.9501149
  entropy:           940.1498317
  heat_capacity:     393.1370231
  energy:            282.1547672

- temperature:       710.0000000
  free_energy:      -385.3795650
  entropy:           945.7273095
  heat_capacity:     393.2735420
  energy:            286.0868248

- temperature:       720.0000000
  free_energy:      -394.8644073
  entropy:           951.2286485
  heat_capacity:     393.4045118
  energy:            290.0202196

- temperature:       730.0000000
  free_energy:      -404.4038909
  entropy:           956.6558746
  heat_capacity:     393.5302281
  energy:            293.9548975

- temperature:       740.0000000
  free_energy:      -413.9972843
  entropy:           962.0109349
  heat_capacity:     393.6509668
  energy:            297.8908076

- temperature:       750.0000000
  free_energy:      -423.6438753
  entropy:           967.2957019
  heat_capacity:     393.7669863
  energy:            301.8279011

- temperature:       760.0000000
  free_energy:      -433.3429700
  entropy:           972.5119768
  heat_capacity:     393.8785283
  energy:            305.7661324

- temperature:       770.0000000
  free_energy:      -443.0938923
  entropy:           977.6614933
  heat_capacity:     393.9858195
  energy:            309.7054575

- temperature:       780.0000000
  free_energy:      -452.8959829
  entropy:           982.7459208
  heat_capacity:     394.0890722
  energy:            313.6458353

- temperature:       790.0000000
  free_energy:      -462.7485991
  entropy:           987.7668675
  heat_capacity:     394.1884860
  energy:            317.5872262

- temperature:       800.0000000
  free_energy:      -472.6511139
  entropy:           992.7258834
  heat_capacity:     394.2842481
  energy:            321.5295928

- temperature:       810.0000000
  free_energy:      -482.6029153
  entropy:           997.6244629
  heat_capacity:     394.3765346
  energy:            325.4728996

- temperature:       820.0000000
  free_energy:      -492.6034065
  entropy:          1002.4640475
  heat_capacity:     394.4655111
  energy:            329.4171125

- temperature:       830.0000000
  free_energy:      -502.6520043
  entropy:          1007.2460284
  heat_capacity:     394.5513334
  energy:            333.3621993

- temperature:       840.0000000
  free_energy:      -512.7481395
  entropy:          1011.9717484
  heat_capacity:     394.6341485
  energy:            337.3081291

- temperature:       850.0000000
  free_energy:      -522.8912560
  entropy:          1016.6425044
  heat_capacity:     394.7140948
  energy:            341.2548727

- temperature:       860.0000000
  free_energy:      -533.0808106
  entropy:          1021.2595494
  heat_capacity:     394.7913028
  energy:            345.2024019

- temperature:       870.0000000
  free_energy:      -543.3162720
  entropy:          1025.8240943
  heat_capacity:     394.8658958
  energy:            349.1506900

- temperature:       880.0000000
  free_energy:      -553.5971214
  entropy:          1030.3373101
  heat_capacity:     394.9379903
  energy:            353.0997115

- temperature:       890.0000000
  free_energy:      -563.9228509
  entropy:          1034.8003290
  heat_capacity:     395.0076962
  energy:            357.0494419

- temperature:       900.0000000
  free_energy:      -574.2929643
  entropy:          1039.2142468
  heat_capacity:     395.0751177
  energy:            360.9998578

- temperature:       910.0000000
  free_energy:      -584.7069757
  entropy:          1043.5801238
  heat_capacity:     395.1403532
  energy:            364.9509369

- temperature:       920.0000000
  free_energy:      -595.1644100
  entropy:          1047.8989869
  heat_capacity:     395.2034959
  energy:            368.9026579

- temperature:       930.0000000
  free_energy:      -605.6648021
  entropy:          1052.1718304
  heat_capacity:     395.2646341
  energy:            372.8550002

- temperature:       940.0000000
  free_energy:      -616.2076965
  entropy:          1056.3996177
  heat_capacity:     395.3238517
  energy:            376.8079442

- temperature:       950.0000000
  free_energy:      -626.7926474
  entropy:          1060.5832826
  heat_capacity:     395.3812280
  energy:            380.7614711

- temperature:       960.0000000
  free_energy:      -637.4192181
  entropy:          1064.7237301
  heat_capacity:     395.4368384
  energy:            384.7155628

- temperature:       970.0000000
  free_energy:      -648.0869808
  entropy:          1068.8218382
  heat_capacity:     395.4907544
  energy:            388.6702022

- temperature:       980.0000000
  free_energy:      -658.7955165
  entropy:          1072.8784582
  heat_capacity:     395.5430440
  energy:            392.6253725

- temperature:       990.0000000
  free_energy:      -669.5444145
  entropy:          1076.8944165
  heat_capacity:     395.5937719
  energy:            396.5810579

- temperature:      1000.0000000
  free_energy:      -680.3332720
  entropy:          1080.8705149
  heat_capacity:     395.6429994
  energy:            400.5372430
