# Thermal properties / unit cell (natom)

unit:
  temperature:   K
  free_energy:   kJ/mol
  entropy:       J/K/mol
  heat_capacity: J/K/mol

natom: 4    
cutoff_frequency: 0.00000
num_modes: 184800
num_integrated_modes: 184665

zero_point_energy:      16.1439521

thermal_properties:
- temperature:         0.0000000
  free_energy:        16.1439521
  entropy:             0.0000000
  heat_capacity:       0.0000000
  energy:             16.1439521

- temperature:        10.0000000
  free_energy:        16.1433981
  entropy:             0.2008611
  heat_capacity:       0.5506556
  energy:             16.1454067

- temperature:        20.0000000
  free_energy:        16.1362160
  entropy:             1.5101942
  heat_capacity:       4.2996312
  energy:             16.1664199

- temperature:        30.0000000
  free_energy:        16.1080119
  entropy:             4.3304518
  heat_capacity:      10.0555006
  energy:             16.2379255

- temperature:        40.0000000
  free_energy:        16.0468215
  entropy:             8.0017796
  heat_capacity:      15.6944707
  energy:             16.3668927

- temperature:        50.0000000
  free_energy:        15.9465941
  entropy:            12.0964375
  heat_capacity:      21.2116061
  energy:             16.5514160

- temperature:        60.0000000
  free_energy:        15.8040196
  entropy:            16.4553995
  heat_capacity:      26.7865565
  energy:             16.7913436

- temperature:        70.0000000
  free_energy:        15.6168487
  entropy:            21.0060297
  heat_capacity:      32.3954957
  energy:             17.0872707

- temperature:        80.0000000
  free_energy:        15.3834418
  entropy:            25.6939192
  heat_capacity:      37.9149538
  energy:             17.4389553

- temperature:        90.0000000
  free_energy:        15.1026823
  entropy:            30.4683284
  heat_capacity:      43.2142154
  energy:             17.8448318

- temperature:       100.0000000
  free_energy:        14.7739440
  entropy:            35.2822890
  heat_capacity:      48.1948705
  energy:             18.3021729

- temperature:       110.0000000
  free_energy:        14.3970422
  entropy:            40.0947973
  heat_capacity:      52.7988810
  energy:             18.8074699

- temperature:       120.0000000
  free_energy:        13.9721664
  entropy:            44.8720684
  heat_capacity:      57.0029334
  energy:             19.3568146

- temperature:       130.0000000
  free_energy:        13.4998072
  entropy:            49.5876350
  heat_capacity:      60.8088869
  energy:             19.9461998

- temperature:       140.0000000
  free_energy:        12.9806860
  entropy:            54.2217024
  heat_capacity:      64.2347283
  energy:             20.5717243

- temperature:       150.0000000
  free_energy:        12.4156924
  entropy:            58.7601645
  heat_capacity:      67.3075120
  energy:             21.2297171

- temperature:       160.0000000
  free_energy:        11.8058333
  entropy:            63.1935510
  heat_capacity:      70.0584068
  energy:             21.9168015

- temperature:       170.0000000
  free_energy:        11.1521913
  entropy:            67.5160468
  heat_capacity:      72.5194858
  energy:             22.6299193

- temperature:       180.0000000
  free_energy:        10.4558923
  entropy:            71.7246478
  heat_capacity:      74.7217939
  energy:             23.3663289

- temperature:       190.0000000
  free_energy:         9.7180811
  entropy:            75.8184645
  heat_capacity:      76.6942905
  energy:             24.1235894

- temperature:       200.0000000
  free_energy:         8.9399035
  entropy:            79.7981670
  heat_capacity:      78.4633573
  energy:             24.8995369

- temperature:       210.0000000
  free_energy:         8.1224923
  entropy:            83.6655492
  heat_capacity:      80.0526565
  energy:             25.6922576

- temperature:       220.0000000
  free_energy:         7.2669584
  entropy:            87.4231942
  heat_capacity:      81.4831929
  energy:             26.5000611

- temperature:       230.0000000
  free_energy:         6.3743838
  entropy:            91.0742192
  heat_capacity:      82.7734859
  energy:             27.3214542

- temperature:       240.0000000
  free_energy:         5.4458179
  entropy:            94.6220828
  heat_capacity:      83.9397934
  energy:             28.1551177

- temperature:       250.0000000
  free_energy:         4.4822739
  entropy:            98.0704424
  heat_capacity:      84.9963509
  energy:             28.9998845

- temperature:       260.0000000
  free_energy:         3.4847282
  entropy:           101.4230477
  heat_capacity:      85.9556075
  energy:             29.8547206

- temperature:       270.0000000
  free_energy:         2.4541195
  entropy:           104.6836636
  heat_capacity:      86.8284458
  energy:             30.7187087

- temperature:       280.0000000
  free_energy:         1.3913491
  entropy:           107.8560149
  heat_capacity:      87.6243827
  energy:             31.5910333

- temperature:       290.0000000
  free_energy:         0.2972813
  entropy:           110.9437469
  heat_capacity:      88.3517472
  energy:             32.4709679

- temperature:       300.0000000
  free_energy:        -0.8272556
  entropy:           113.9503989
  heat_capacity:      89.0178382
  energy:             33.3578641

- temperature:       310.0000000
  free_energy:        -1.9814678
  entropy:           116.8793861
  heat_capacity:      89.6290610
  energy:             34.2511419

- temperature:       320.0000000
  free_energy:        -3.1645953
  entropy:           119.7339894
  heat_capacity:      90.1910462
  energy:             35.1502813

- temperature:       330.0000000
  free_energy:        -4.3759101
  entropy:           122.5173497
  heat_capacity:      90.7087528
  energy:             36.0548153

- temperature:       340.0000000
  free_energy:        -5.6147149
  entropy:           125.2324654
  heat_capacity:      91.1865565
  energy:             36.9643234

- temperature:       350.0000000
  free_energy:        -6.8803415
  entropy:           127.8821938
  heat_capacity:      91.6283260
  energy:             37.8784263

- temperature:       360.0000000
  free_energy:        -8.1721499
  entropy:           130.4692531
  heat_capacity:      92.0374889
  energy:             38.7967813

- temperature:       370.0000000
  free_energy:        -9.4895263
  entropy:           132.9962267
  heat_capacity:      92.4170878
  energy:             39.7190776

- temperature:       380.0000000
  free_energy:       -10.8318823
  entropy:           135.4655680
  heat_capacity:      92.7698296
  energy:             40.6450335

- temperature:       390.0000000
  free_energy:       -12.1986533
  entropy:           137.8796053
  heat_capacity:      93.0981270
  energy:             41.5743927

- temperature:       400.0000000
  free_energy:       -13.5892974
  entropy:           140.2405481
  heat_capacity:      93.4041349
  energy:             42.5069218

- temperature:       410.0000000
  free_energy:       -15.0032943
  entropy:           142.5504924
  heat_capacity:      93.6897819
  energy:             43.4424076

- temperature:       420.0000000
  free_energy:       -16.4401439
  entropy:           144.8114268
  heat_capacity:      93.9567974
  energy:             44.3806553

- temperature:       430.0000000
  free_energy:       -17.8993658
  entropy:           147.0252381
  heat_capacity:      94.2067351
  energy:             45.3214866

- temperature:       440.0000000
  free_energy:       -19.3804976
  entropy:           149.1937168
  heat_capacity:      94.4409933
  energy:             46.2647378

- temperature:       450.0000000
  free_energy:       -20.8830947
  entropy:           151.3185625
  heat_capacity:      94.6608331
  energy:             47.2102584

- temperature:       460.0000000
  free_energy:       -22.4067288
  entropy:           153.4013891
  heat_capacity:      94.8673936
  energy:             48.1579102

- temperature:       470.0000000
  free_energy:       -23.9509875
  entropy:           155.4437298
  heat_capacity:      95.0617057
  energy:             49.1075655

- temperature:       480.0000000
  free_energy:       -25.5154733
  entropy:           157.4470415
  heat_capacity:      95.2447038
  energy:             50.0591066

- temperature:       490.0000000
  free_energy:       -27.0998029
  entropy:           159.4127093
  heat_capacity:      95.4172364
  energy:             51.0124247

- temperature:       500.0000000
  free_energy:       -28.7036064
  entropy:           161.3420509
  heat_capacity:      95.5800751
  energy:             51.9674190

- temperature:       510.0000000
  free_energy:       -30.3265270
  entropy:           163.2363200
  heat_capacity:      95.7339228
  energy:             52.9239962

- temperature:       520.0000000
  free_energy:       -31.9682199
  entropy:           165.0967107
  heat_capacity:      95.8794207
  energy:             53.8820697

- temperature:       530.0000000
  free_energy:       -33.6283521
  entropy:           166.9243601
  heat_capacity:      96.0171546
  energy:             54.8415588

- temperature:       540.0000000
  free_energy:       -35.3066016
  entropy:           168.7203523
  heat_capacity:      96.1476604
  energy:             55.8023887

- temperature:       550.0000000
  free_energy:       -37.0026570
  entropy:           170.4857210
  heat_capacity:      96.2714294
  energy:             56.7644895

- temperature:       560.0000000
  free_energy:       -38.7162172
  entropy:           172.2214527
  heat_capacity:      96.3889120
  energy:             57.7277963

- temperature:       570.0000000
  free_energy:       -40.4469904
  entropy:           173.9284889
  heat_capacity:      96.5005223
  energy:             58.6922482

- temperature:       580.0000000
  free_energy:       -42.1946943
  entropy:           175.6077289
  heat_capacity:      96.6066412
  energy:             59.6577884

- temperature:       590.0000000
  free_energy:       -43.9590552
  entropy:           177.2600324
  heat_capacity:      96.7076194
  energy:             60.6243639

- temperature:       600.0000000
  free_energy:       -45.7398079
  entropy:           178.8862212
  heat_capacity:      96.8037804
  energy:             61.5919248

- temperature:       610.0000000
  free_energy:       -47.5366952
  entropy:           180.4870814
  heat_capacity:      96.8954229
  energy:             62.5604244

- temperature:       620.0000000
  free_energy:       -49.3494676
  entropy:           182.0633657
  heat_capacity:      96.9828231
  energy:             63.5298191

- temperature:       630.0000000
  free_energy:       -51.1778830
  entropy:           183.6157947
  heat_capacity:      97.0662365
  energy:             64.5000676

- temperature:       640.0000000
  free_energy:       -53.0217063
  entropy:           185.1450588
  heat_capacity:      97.1458998
  energy:             65.4711313

- temperature:       650.0000000
  free_energy:       -54.8807092
  entropy:           186.6518201
  heat_capacity:      97.2220328
  energy:             66.4429738

- temperature:       660.0000000
  free_energy:       -56.7546698
  entropy:           188.1367132
  heat_capacity:      97.2948392
  energy:             67.4155609

- temperature:       670.0000000
  free_energy:       -58.6433726
  entropy:           189.6003474
  heat_capacity:      97.3645086
  energy:             68.3888602

- temperature:       680.0000000
  free_energy:       -60.5466079
  entropy:           191.0433075
  heat_capacity:      97.4312173
  energy:             69.3628412

- temperature:       690.0000000
  free_energy:       -62.4641717
  entropy:           192.4661550
  heat_capacity:      97.4951295
  energy:             70.3374752

- temperature:       700.0000000
  free_energy:       -64.3958657
  entropy:           193.8694296
  heat_capacity:      97.5563981
  energy:             71.3127350

- temperature:       710.0000000
  free_energy:       -66.3414968
  entropy:           195.2536502
  heat_capacity:      97.6151661
  energy:             72.2885948

- temperature:       720.0000000
  free_energy:       -68.3008769
  entropy:           196.6193157
  heat_capacity:      97.6715667
  energy:             73.2650304

- temperature:       730.0000000
  free_energy:       -70.2738229
  entropy:           197.9669062
  heat_capacity:      97.7257246
  energy:             74.2420187

- temperature:       740.0000000
  free_energy:       -72.2601563
  entropy:           199.2968840
  heat_capacity:      97.7777564
  energy:             75.2195378

- temperature:       750.0000000
  free_energy:       -74.2597033
  entropy:           200.6096939
  heat_capacity:      97.8277713
  energy:             76.1975671

- temperature:       760.0000000
  free_energy:       -76.2722944
  entropy:           201.9057648
  heat_capacity:      97.8758714
  energy:             77.1760869

- temperature:       770.0000000
  free_energy:       -78.2977642
  entropy:           203.1855100
  heat_capacity:      97.9221528
  energy:             78.1550785

- temperature:       780.0000000
  free_energy:       -80.3359515
  entropy:           204.4493278
  heat_capacity:      97.9667055
  energy:             79.1345242

- temperature:       790.0000000
  free_energy:       -82.3866989
  entropy:           205.6976026
  heat_capacity:      98.0096141
  energy:             80.1144071

- temperature:       800.0000000
  free_energy:       -84.4498530
  entropy:           206.9307053
  heat_capacity:      98.0509579
  energy:             81.0947112

- temperature:       810.0000000
  free_energy:       -86.5252637
  entropy:           208.1489938
  heat_capacity:      98.0908119
  energy:             82.0754213

- temperature:       820.0000000
  free_energy:       -88.6127846
  entropy:           209.3528139
  heat_capacity:      98.1292462
  energy:             83.0565227

- temperature:       830.0000000
  free_energy:       -90.7122728
  entropy:           210.5424994
  heat_capacity:      98.1663274
  energy:             84.0380017

- temperature:       840.0000000
  free_energy:       -92.8235886
  entropy:           211.7183733
  heat_capacity:      98.2021177
  energy:             85.0198450

- temperature:       850.0000000
  free_energy:       -94.9465953
  entropy:           212.8807474
  heat_capacity:      98.2366762
  energy:             86.0020399

- temperature:       860.0000000
  free_energy:       -97.0811595
  entropy:           214.0299234
  heat_capacity:      98.2700584
  energy:             86.9845746

- temperature:       870.0000000
  free_energy:       -99.2271508
  entropy:           215.1661932
  heat_capacity:      98.3023170
  energy:             87.9674374

- temperature:       880.0000000
  free_energy:      -101.3844413
  entropy:           216.2898394
  heat_capacity:      98.3335016
  energy:             88.9506173

- temperature:       890.0000000
  free_energy:      -103.5529064
  entropy:           217.4011352
  heat_capacity:      98.3636590
  energy:             89.9341040

- temperature:       900.0000000
  free_energy:      -105.7324237
  entropy:           218.5003455
  heat_capacity:      98.3928338
  energy:             90.9178872

- temperature:       910.0000000
  free_energy:      -107.9228739
  entropy:           219.5877268
  heat_capacity:      98.4210679
  energy:             91.9019575

- temperature:       920.0000000
  free_energy:      -110.1241397
  entropy:           220.6635275
  heat_capacity:      98.4484013
  energy:             92.8863056

- temperature:       930.0000000
  free_energy:      -112.3361066
  entropy:           221.7279885
  heat_capacity:      98.4748717
  energy:             93.8709227

- temperature:       940.0000000
  free_energy:      -114.5586624
  entropy:           222.7813433
  heat_capacity:      98.5005148
  energy:             94.8558003

- temperature:       950.0000000
  free_energy:      -116.7916972
  entropy:           223.8238185
  heat_capacity:      98.5253648
  energy:             95.8409303

- temperature:       960.0000000
  free_energy:      -119.0351033
  entropy:           224.8556336
  heat_capacity:      98.5494537
  energy:             96.8263050

- temperature:       970.0000000
  free_energy:      -121.2887751
  entropy:           225.8770021
  heat_capacity:      98.5728124
  energy:             97.8119170

- temperature:       980.0000000
  free_energy:      -123.5526092
  entropy:           226.8881307
  heat_capacity:      98.5954698
  energy:             98.7977589

- temperature:       990.0000000
  free_energy:      -125.8265042
  entropy:           227.8892205
  heat_capacity:      98.6174538
  energy:             99.7838241

- temperature:      1000.0000000
  free_energy:      -128.1103608
  entropy:           228.8804666
  heat_capacity:      98.6387905
  energy:            100.7701059
