phonopy:
  version: "2.37.1"
  frequency_unit_conversion_factor: 15.633302
  symmetry_tolerance: 1.00000e-05

space_group:
  type: "P1"
  number: 1
  Hall_symbol: "P 1"

primitive_matrix:
- [  0.000000000000000, -1.000000000000000, -0.000000000000000 ]
- [  1.000000000000000,  0.000000000000000,  1.000000000000000 ]
- [  0.000000000000000,  0.000000000000000,  1.000000000000000 ]

supercell_matrix:
- [   3,   0,   0 ]
- [   0,   3,   0 ]
- [   0,   0,   2 ]

primitive_cell:
  lattice:
  - [    -0.001051352799905,     4.121768241459879,     0.000000000000000 ] # a
  - [    -4.245717697798144,     0.000000000000000,     0.000000000000000 ] # b
  - [    -0.004231521135375,     2.057181525206740,     6.101576731399876 ] # c
  points:
  - symbol: Li # 1
    coordinates: [  0.387373412902738,  0.239514589439923,  0.447190084381151 ]
    mass: 6.940000
  - symbol: Li # 2
    coordinates: [  0.057117872632710,  0.239608099131254,  0.107803560824510 ]
    mass: 6.940000
  - symbol: Li # 3
    coordinates: [  0.727279999169281,  0.239372841660820,  0.768133514117673 ]
    mass: 6.940000
  - symbol: Ga # 4
    coordinates: [  0.231943004716735,  0.739506797361466,  0.758364808176415 ]
    mass: 69.723000
  - symbol: Ga # 5
    coordinates: [  0.882845861961851,  0.739409344768949,  0.456961948055738 ]
    mass: 69.723000
  - symbol: Sn # 6
    coordinates: [  0.557314094574759,  0.739499999809991,  0.107675692588281 ]
    mass: 118.710000
  reciprocal_lattice: # without 2pi
  - [    -0.000000000000000,     0.242614320218502,    -0.081798806976502 ] # a*
  - [    -0.235531439247269,    -0.000060077768475,    -0.000143088487824 ] # b*
  - [    -0.000000000000000,     0.000000000000000,     0.163892063317636 ] # c*

unit_cell:
  lattice:
  - [     4.245717697798144,     0.000000000000000,     0.000000000000000 ] # a
  - [    -0.001051352799905,     4.121768241459880,     0.000000000000000 ] # b
  - [    -0.003180168335470,    -2.064586716253140,     6.101576731399876 ] # c
  points:
  - symbol: Li # 1
    coordinates: [  0.760485410560077,  0.834563497283888,  0.447190084381151 ]
    mass: 6.940000
    reduced_to: 1
  - symbol: Li # 2
    coordinates: [  0.760391900868746,  0.164921433457220,  0.107803560824510 ]
    mass: 6.940000
    reduced_to: 2
  - symbol: Li # 3
    coordinates: [  0.760627158339180,  0.495413513286954,  0.768133514117673 ]
    mass: 6.940000
    reduced_to: 3
  - symbol: Ga # 4
    coordinates: [  0.260493202638534,  0.990307812893149,  0.758364808176415 ]
    mass: 69.723000
    reduced_to: 4
  - symbol: Ga # 5
    coordinates: [  0.260590655231051,  0.339807810017588,  0.456961948055738 ]
    mass: 69.723000
    reduced_to: 5
  - symbol: Sn # 6
    coordinates: [  0.260500000190009,  0.664989787163039,  0.107675692588281 ]
    mass: 118.710000
    reduced_to: 6

supercell:
  lattice:
  - [    12.737153093394431,     0.000000000000000,     0.000000000000000 ] # a
  - [    -0.003154058399715,    12.365304724379641,     0.000000000000000 ] # b
  - [    -0.006360336670940,    -4.129173432506279,    12.203153462799753 ] # c
  points:
  - symbol: Li # 1
    coordinates: [  0.253495136853359,  0.278187832427963,  0.223595042190575 ]
    mass: 6.940000
    reduced_to: 1
  - symbol: Li # 2
    coordinates: [  0.586828470186692,  0.278187832427963,  0.223595042190575 ]
    mass: 6.940000
    reduced_to: 1
  - symbol: Li # 3
    coordinates: [  0.920161803520026,  0.278187832427963,  0.223595042190575 ]
    mass: 6.940000
    reduced_to: 1
  - symbol: Li # 4
    coordinates: [  0.253495136853359,  0.611521165761296,  0.223595042190575 ]
    mass: 6.940000
    reduced_to: 1
  - symbol: Li # 5
    coordinates: [  0.586828470186692,  0.611521165761296,  0.223595042190575 ]
    mass: 6.940000
    reduced_to: 1
  - symbol: Li # 6
    coordinates: [  0.920161803520026,  0.611521165761296,  0.223595042190575 ]
    mass: 6.940000
    reduced_to: 1
  - symbol: Li # 7
    coordinates: [  0.253495136853359,  0.944854499094629,  0.223595042190575 ]
    mass: 6.940000
    reduced_to: 1
  - symbol: Li # 8
    coordinates: [  0.586828470186692,  0.944854499094629,  0.223595042190575 ]
    mass: 6.940000
    reduced_to: 1
  - symbol: Li # 9
    coordinates: [  0.920161803520026,  0.944854499094629,  0.223595042190575 ]
    mass: 6.940000
    reduced_to: 1
  - symbol: Li # 10
    coordinates: [  0.253495136853359,  0.278187832427963,  0.723595042190575 ]
    mass: 6.940000
    reduced_to: 1
  - symbol: Li # 11
    coordinates: [  0.586828470186692,  0.278187832427963,  0.723595042190575 ]
    mass: 6.940000
    reduced_to: 1
  - symbol: Li # 12
    coordinates: [  0.920161803520026,  0.278187832427963,  0.723595042190575 ]
    mass: 6.940000
    reduced_to: 1
  - symbol: Li # 13
    coordinates: [  0.253495136853359,  0.611521165761296,  0.723595042190575 ]
    mass: 6.940000
    reduced_to: 1
  - symbol: Li # 14
    coordinates: [  0.586828470186692,  0.611521165761296,  0.723595042190575 ]
    mass: 6.940000
    reduced_to: 1
  - symbol: Li # 15
    coordinates: [  0.920161803520026,  0.611521165761296,  0.723595042190575 ]
    mass: 6.940000
    reduced_to: 1
  - symbol: Li # 16
    coordinates: [  0.253495136853359,  0.944854499094629,  0.723595042190575 ]
    mass: 6.940000
    reduced_to: 1
  - symbol: Li # 17
    coordinates: [  0.586828470186692,  0.944854499094629,  0.723595042190575 ]
    mass: 6.940000
    reduced_to: 1
  - symbol: Li # 18
    coordinates: [  0.920161803520026,  0.944854499094629,  0.723595042190575 ]
    mass: 6.940000
    reduced_to: 1
  - symbol: Li # 19
    coordinates: [  0.253463966956249,  0.054973811152407,  0.053901780412255 ]
    mass: 6.940000
    reduced_to: 19
  - symbol: Li # 20
    coordinates: [  0.586797300289582,  0.054973811152407,  0.053901780412255 ]
    mass: 6.940000
    reduced_to: 19
  - symbol: Li # 21
    coordinates: [  0.920130633622915,  0.054973811152407,  0.053901780412255 ]
    mass: 6.940000
    reduced_to: 19
  - symbol: Li # 22
    coordinates: [  0.253463966956249,  0.388307144485740,  0.053901780412255 ]
    mass: 6.940000
    reduced_to: 19
  - symbol: Li # 23
    coordinates: [  0.586797300289582,  0.388307144485740,  0.053901780412255 ]
    mass: 6.940000
    reduced_to: 19
  - symbol: Li # 24
    coordinates: [  0.920130633622915,  0.388307144485740,  0.053901780412255 ]
    mass: 6.940000
    reduced_to: 19
  - symbol: Li # 25
    coordinates: [  0.253463966956249,  0.721640477819073,  0.053901780412255 ]
    mass: 6.940000
    reduced_to: 19
  - symbol: Li # 26
    coordinates: [  0.586797300289582,  0.721640477819073,  0.053901780412255 ]
    mass: 6.940000
    reduced_to: 19
  - symbol: Li # 27
    coordinates: [  0.920130633622915,  0.721640477819073,  0.053901780412255 ]
    mass: 6.940000
    reduced_to: 19
  - symbol: Li # 28
    coordinates: [  0.253463966956249,  0.054973811152407,  0.553901780412255 ]
    mass: 6.940000
    reduced_to: 19
  - symbol: Li # 29
    coordinates: [  0.586797300289582,  0.054973811152407,  0.553901780412255 ]
    mass: 6.940000
    reduced_to: 19
  - symbol: Li # 30
    coordinates: [  0.920130633622915,  0.054973811152407,  0.553901780412255 ]
    mass: 6.940000
    reduced_to: 19
  - symbol: Li # 31
    coordinates: [  0.253463966956249,  0.388307144485740,  0.553901780412255 ]
    mass: 6.940000
    reduced_to: 19
  - symbol: Li # 32
    coordinates: [  0.586797300289582,  0.388307144485740,  0.553901780412255 ]
    mass: 6.940000
    reduced_to: 19
  - symbol: Li # 33
    coordinates: [  0.920130633622915,  0.388307144485740,  0.553901780412255 ]
    mass: 6.940000
    reduced_to: 19
  - symbol: Li # 34
    coordinates: [  0.253463966956249,  0.721640477819073,  0.553901780412255 ]
    mass: 6.940000
    reduced_to: 19
  - symbol: Li # 35
    coordinates: [  0.586797300289582,  0.721640477819073,  0.553901780412255 ]
    mass: 6.940000
    reduced_to: 19
  - symbol: Li # 36
    coordinates: [  0.920130633622915,  0.721640477819073,  0.553901780412255 ]
    mass: 6.940000
    reduced_to: 19
  - symbol: Li # 37
    coordinates: [  0.253542386113060,  0.165137837762318,  0.384066757058837 ]
    mass: 6.940000
    reduced_to: 37
  - symbol: Li # 38
    coordinates: [  0.586875719446393,  0.165137837762318,  0.384066757058837 ]
    mass: 6.940000
    reduced_to: 37
  - symbol: Li # 39
    coordinates: [  0.920209052779727,  0.165137837762318,  0.384066757058837 ]
    mass: 6.940000
    reduced_to: 37
  - symbol: Li # 40
    coordinates: [  0.253542386113060,  0.498471171095651,  0.384066757058837 ]
    mass: 6.940000
    reduced_to: 37
  - symbol: Li # 41
    coordinates: [  0.586875719446393,  0.498471171095651,  0.384066757058837 ]
    mass: 6.940000
    reduced_to: 37
  - symbol: Li # 42
    coordinates: [  0.920209052779727,  0.498471171095651,  0.384066757058837 ]
    mass: 6.940000
    reduced_to: 37
  - symbol: Li # 43
    coordinates: [  0.253542386113060,  0.831804504428985,  0.384066757058837 ]
    mass: 6.940000
    reduced_to: 37
  - symbol: Li # 44
    coordinates: [  0.586875719446393,  0.831804504428985,  0.384066757058837 ]
    mass: 6.940000
    reduced_to: 37
  - symbol: Li # 45
    coordinates: [  0.920209052779727,  0.831804504428985,  0.384066757058837 ]
    mass: 6.940000
    reduced_to: 37
  - symbol: Li # 46
    coordinates: [  0.253542386113060,  0.165137837762318,  0.884066757058837 ]
    mass: 6.940000
    reduced_to: 37
  - symbol: Li # 47
    coordinates: [  0.586875719446393,  0.165137837762318,  0.884066757058837 ]
    mass: 6.940000
    reduced_to: 37
  - symbol: Li # 48
    coordinates: [  0.920209052779727,  0.165137837762318,  0.884066757058837 ]
    mass: 6.940000
    reduced_to: 37
  - symbol: Li # 49
    coordinates: [  0.253542386113060,  0.498471171095651,  0.884066757058837 ]
    mass: 6.940000
    reduced_to: 37
  - symbol: Li # 50
    coordinates: [  0.586875719446393,  0.498471171095651,  0.884066757058837 ]
    mass: 6.940000
    reduced_to: 37
  - symbol: Li # 51
    coordinates: [  0.920209052779727,  0.498471171095651,  0.884066757058837 ]
    mass: 6.940000
    reduced_to: 37
  - symbol: Li # 52
    coordinates: [  0.253542386113060,  0.831804504428985,  0.884066757058837 ]
    mass: 6.940000
    reduced_to: 37
  - symbol: Li # 53
    coordinates: [  0.586875719446393,  0.831804504428985,  0.884066757058837 ]
    mass: 6.940000
    reduced_to: 37
  - symbol: Li # 54
    coordinates: [  0.920209052779727,  0.831804504428985,  0.884066757058837 ]
    mass: 6.940000
    reduced_to: 37
  - symbol: Ga # 55
    coordinates: [  0.086831067546178,  0.330102604297716,  0.379182404088207 ]
    mass: 69.723000
    reduced_to: 55
  - symbol: Ga # 56
    coordinates: [  0.420164400879511,  0.330102604297716,  0.379182404088207 ]
    mass: 69.723000
    reduced_to: 55
  - symbol: Ga # 57
    coordinates: [  0.753497734212845,  0.330102604297716,  0.379182404088207 ]
    mass: 69.723000
    reduced_to: 55
  - symbol: Ga # 58
    coordinates: [  0.086831067546178,  0.663435937631050,  0.379182404088207 ]
    mass: 69.723000
    reduced_to: 55
  - symbol: Ga # 59
    coordinates: [  0.420164400879511,  0.663435937631050,  0.379182404088207 ]
    mass: 69.723000
    reduced_to: 55
  - symbol: Ga # 60
    coordinates: [  0.753497734212845,  0.663435937631050,  0.379182404088207 ]
    mass: 69.723000
    reduced_to: 55
  - symbol: Ga # 61
    coordinates: [  0.086831067546178,  0.996769270964383,  0.379182404088207 ]
    mass: 69.723000
    reduced_to: 55
  - symbol: Ga # 62
    coordinates: [  0.420164400879511,  0.996769270964383,  0.379182404088207 ]
    mass: 69.723000
    reduced_to: 55
  - symbol: Ga # 63
    coordinates: [  0.753497734212845,  0.996769270964383,  0.379182404088207 ]
    mass: 69.723000
    reduced_to: 55
  - symbol: Ga # 64
    coordinates: [  0.086831067546178,  0.330102604297716,  0.879182404088207 ]
    mass: 69.723000
    reduced_to: 55
  - symbol: Ga # 65
    coordinates: [  0.420164400879511,  0.330102604297716,  0.879182404088207 ]
    mass: 69.723000
    reduced_to: 55
  - symbol: Ga # 66
    coordinates: [  0.753497734212845,  0.330102604297716,  0.879182404088207 ]
    mass: 69.723000
    reduced_to: 55
  - symbol: Ga # 67
    coordinates: [  0.086831067546178,  0.663435937631050,  0.879182404088207 ]
    mass: 69.723000
    reduced_to: 55
  - symbol: Ga # 68
    coordinates: [  0.420164400879511,  0.663435937631050,  0.879182404088207 ]
    mass: 69.723000
    reduced_to: 55
  - symbol: Ga # 69
    coordinates: [  0.753497734212845,  0.663435937631050,  0.879182404088207 ]
    mass: 69.723000
    reduced_to: 55
  - symbol: Ga # 70
    coordinates: [  0.086831067546178,  0.996769270964383,  0.879182404088207 ]
    mass: 69.723000
    reduced_to: 55
  - symbol: Ga # 71
    coordinates: [  0.420164400879511,  0.996769270964383,  0.879182404088207 ]
    mass: 69.723000
    reduced_to: 55
  - symbol: Ga # 72
    coordinates: [  0.753497734212845,  0.996769270964383,  0.879182404088207 ]
    mass: 69.723000
    reduced_to: 55
  - symbol: Ga # 73
    coordinates: [  0.086863551743684,  0.113269270005863,  0.228480974027869 ]
    mass: 69.723000
    reduced_to: 73
  - symbol: Ga # 74
    coordinates: [  0.420196885077017,  0.113269270005863,  0.228480974027869 ]
    mass: 69.723000
    reduced_to: 73
  - symbol: Ga # 75
    coordinates: [  0.753530218410350,  0.113269270005863,  0.228480974027869 ]
    mass: 69.723000
    reduced_to: 73
  - symbol: Ga # 76
    coordinates: [  0.086863551743684,  0.446602603339196,  0.228480974027869 ]
    mass: 69.723000
    reduced_to: 73
  - symbol: Ga # 77
    coordinates: [  0.420196885077017,  0.446602603339196,  0.228480974027869 ]
    mass: 69.723000
    reduced_to: 73
  - symbol: Ga # 78
    coordinates: [  0.753530218410350,  0.446602603339196,  0.228480974027869 ]
    mass: 69.723000
    reduced_to: 73
  - symbol: Ga # 79
    coordinates: [  0.086863551743684,  0.779935936672529,  0.228480974027869 ]
    mass: 69.723000
    reduced_to: 73
  - symbol: Ga # 80
    coordinates: [  0.420196885077017,  0.779935936672529,  0.228480974027869 ]
    mass: 69.723000
    reduced_to: 73
  - symbol: Ga # 81
    coordinates: [  0.753530218410350,  0.779935936672529,  0.228480974027869 ]
    mass: 69.723000
    reduced_to: 73
  - symbol: Ga # 82
    coordinates: [  0.086863551743684,  0.113269270005863,  0.728480974027869 ]
    mass: 69.723000
    reduced_to: 73
  - symbol: Ga # 83
    coordinates: [  0.420196885077017,  0.113269270005863,  0.728480974027869 ]
    mass: 69.723000
    reduced_to: 73
  - symbol: Ga # 84
    coordinates: [  0.753530218410350,  0.113269270005863,  0.728480974027869 ]
    mass: 69.723000
    reduced_to: 73
  - symbol: Ga # 85
    coordinates: [  0.086863551743684,  0.446602603339196,  0.728480974027869 ]
    mass: 69.723000
    reduced_to: 73
  - symbol: Ga # 86
    coordinates: [  0.420196885077017,  0.446602603339196,  0.728480974027869 ]
    mass: 69.723000
    reduced_to: 73
  - symbol: Ga # 87
    coordinates: [  0.753530218410350,  0.446602603339196,  0.728480974027869 ]
    mass: 69.723000
    reduced_to: 73
  - symbol: Ga # 88
    coordinates: [  0.086863551743684,  0.779935936672529,  0.728480974027869 ]
    mass: 69.723000
    reduced_to: 73
  - symbol: Ga # 89
    coordinates: [  0.420196885077017,  0.779935936672529,  0.728480974027869 ]
    mass: 69.723000
    reduced_to: 73
  - symbol: Ga # 90
    coordinates: [  0.753530218410350,  0.779935936672529,  0.728480974027869 ]
    mass: 69.723000
    reduced_to: 73
  - symbol: Sn # 91
    coordinates: [  0.086833333396670,  0.221663262387680,  0.053837846294140 ]
    mass: 118.710000
    reduced_to: 91
  - symbol: Sn # 92
    coordinates: [  0.420166666730003,  0.221663262387680,  0.053837846294140 ]
    mass: 118.710000
    reduced_to: 91
  - symbol: Sn # 93
    coordinates: [  0.753500000063336,  0.221663262387680,  0.053837846294140 ]
    mass: 118.710000
    reduced_to: 91
  - symbol: Sn # 94
    coordinates: [  0.086833333396670,  0.554996595721013,  0.053837846294140 ]
    mass: 118.710000
    reduced_to: 91
  - symbol: Sn # 95
    coordinates: [  0.420166666730003,  0.554996595721013,  0.053837846294140 ]
    mass: 118.710000
    reduced_to: 91
  - symbol: Sn # 96
    coordinates: [  0.753500000063336,  0.554996595721013,  0.053837846294140 ]
    mass: 118.710000
    reduced_to: 91
  - symbol: Sn # 97
    coordinates: [  0.086833333396670,  0.888329929054346,  0.053837846294140 ]
    mass: 118.710000
    reduced_to: 91
  - symbol: Sn # 98
    coordinates: [  0.420166666730003,  0.888329929054346,  0.053837846294140 ]
    mass: 118.710000
    reduced_to: 91
  - symbol: Sn # 99
    coordinates: [  0.753500000063336,  0.888329929054346,  0.053837846294140 ]
    mass: 118.710000
    reduced_to: 91
  - symbol: Sn # 100
    coordinates: [  0.086833333396670,  0.221663262387680,  0.553837846294140 ]
    mass: 118.710000
    reduced_to: 91
  - symbol: Sn # 101
    coordinates: [  0.420166666730003,  0.221663262387680,  0.553837846294140 ]
    mass: 118.710000
    reduced_to: 91
  - symbol: Sn # 102
    coordinates: [  0.753500000063336,  0.221663262387680,  0.553837846294140 ]
    mass: 118.710000
    reduced_to: 91
  - symbol: Sn # 103
    coordinates: [  0.086833333396670,  0.554996595721013,  0.553837846294140 ]
    mass: 118.710000
    reduced_to: 91
  - symbol: Sn # 104
    coordinates: [  0.420166666730003,  0.554996595721013,  0.553837846294140 ]
    mass: 118.710000
    reduced_to: 91
  - symbol: Sn # 105
    coordinates: [  0.753500000063336,  0.554996595721013,  0.553837846294140 ]
    mass: 118.710000
    reduced_to: 91
  - symbol: Sn # 106
    coordinates: [  0.086833333396670,  0.888329929054346,  0.553837846294140 ]
    mass: 118.710000
    reduced_to: 91
  - symbol: Sn # 107
    coordinates: [  0.420166666730003,  0.888329929054346,  0.553837846294140 ]
    mass: 118.710000
    reduced_to: 91
  - symbol: Sn # 108
    coordinates: [  0.753500000063336,  0.888329929054346,  0.553837846294140 ]
    mass: 118.710000
    reduced_to: 91

displacements:
- atom:    1
  displacement:
    [   0.0100000000000000,  0.0000000000000000,  0.0000000000000000 ]
  forces:
  - [  -0.0204752758145332,  0.0018769698217511,  0.0415460355579853 ]
  - [   0.0010195253416896,  0.0018915038090199,  0.0415922962129116 ]
  - [   0.0010359875159338,  0.0018931633094326,  0.0416392497718334 ]
  - [   0.0008347922703251,  0.0018926928751171,  0.0416170544922352 ]
  - [   0.0002271672565257,  0.0015921087469906,  0.0415888801217079 ]
  - [   0.0002304975787411,  0.0021889465861022,  0.0416445843875408 ]
  - [   0.0008354277815670,  0.0018938974244520,  0.0416163280606270 ]
  - [   0.0002289121621288,  0.0021930197253823,  0.0415877923369408 ]
  - [   0.0002304653171450,  0.0015966949285939,  0.0416434854269028 ]
  - [   0.0005784258246422,  0.0018929446814582,  0.0416133441030979 ]
  - [   0.0005114413797855,  0.0019037056481466,  0.0416055172681808 ]
  - [   0.0005125516909175,  0.0018815143266693,  0.0416234321892262 ]
  - [   0.0005604624748230,  0.0018920822767541,  0.0416159331798553 ]
  - [   0.0005122534930706,  0.0018889147322625,  0.0416086167097092 ]
  - [   0.0005121008725837,  0.0018955338746309,  0.0416228957474232 ]
  - [   0.0005608815699816,  0.0018925438635051,  0.0416171662509441 ]
  - [   0.0005121454596519,  0.0018846543971449,  0.0416147485375404 ]
  - [   0.0005160588771105,  0.0019017240265384,  0.0416172146797180 ]
  - [   0.0012930305674672,  0.0012868382036686, -0.0011600590078160 ]
  - [   0.0009886529296637,  0.0013223458081484, -0.0012533691478893 ]
  - [   0.0009870737558231,  0.0012417752295732, -0.0010840150061995 ]
  - [   0.0012917052954435,  0.0012764167040586, -0.0011604428291321 ]
  - [   0.0009882161393762,  0.0012416467070580, -0.0012585863005370 ]
  - [   0.0009862910956144,  0.0013243760913610, -0.0010884867515415 ]
  - [   0.0011153891682625,  0.0012833867222071, -0.0011715933214873 ]
  - [   0.0010878192260861,  0.0012829955667257, -0.0011698920279741 ]
  - [   0.0010866021038964,  0.0012829750776291, -0.0011654526460916 ]
  - [   0.0010785739868879,  0.0012815708760172, -0.0011631611268967 ]
  - [   0.0010947342962027,  0.0013074394082651, -0.0011713056592271 ]
  - [   0.0010953197488561,  0.0012571406550705, -0.0011650894302875 ]
  - [   0.0013272948563099,  0.0012841068673879, -0.0011604471364990 ]
  - [   0.0006741192191839,  0.0012836733367294, -0.0015218716580421 ]
  - [   0.0006780223920941,  0.0012841688003391, -0.0008081834530458 ]
  - [   0.0010798219591379,  0.0012831169879064, -0.0011708156671375 ]
  - [   0.0010942295193672,  0.0012579334434122, -0.0011673392727971 ]
  - [   0.0010947077535093,  0.0013048399705440, -0.0011598773999140 ]
  - [  -0.0007614959031343, -0.0019216663204134, -0.0410353913903236 ]
  - [  -0.0009442660957575, -0.0020127440802753, -0.0409706234931946 ]
  - [  -0.0009501488530077, -0.0018436966929585, -0.0410885065793991 ]
  - [  -0.0007591508328915, -0.0019332589581609, -0.0410352945327759 ]
  - [  -0.0009401161223650, -0.0018396094674245, -0.0409675426781178 ]
  - [  -0.0009485164773650, -0.0020094905048609, -0.0410879924893379 ]
  - [  -0.0010411161929369, -0.0019269771873951, -0.0410283133387566 ]
  - [  -0.0009642187505960, -0.0019269859185442, -0.0410242006182671 ]
  - [  -0.0009670728468336, -0.0019272827776149, -0.0410355851054192 ]
  - [  -0.0006907063652761, -0.0019267189782113, -0.0410261526703835 ]
  - [  -0.0014762136852369, -0.0019260919652879, -0.0406152755022049 ]
  - [  -0.0014753988943994, -0.0019270228222013, -0.0414440073072910 ]
  - [  -0.0009896489791572, -0.0019251897465438, -0.0410305000841618 ]
  - [  -0.0010035245213658, -0.0019447319209576, -0.0410262271761894 ]
  - [  -0.0010042903013527, -0.0019071619026363, -0.0410331301391125 ]
  - [  -0.0009938462171704, -0.0019265431910753, -0.0410298854112625 ]
  - [  -0.0010011858539656, -0.0019078179029748, -0.0410203784704208 ]
  - [  -0.0010013522114605, -0.0019439056050032, -0.0410377606749535 ]
  - [   0.0037016179412603,  0.0015504388138652, -0.0827962681651115 ]
  - [   0.0037978747859597,  0.0015528710791841, -0.0748257413506508 ]
  - [   0.0006602888461202,  0.0015517489518970, -0.0788747370243073 ]
  - [   0.0006355514633469,  0.0016021667979658, -0.0789290294051170 ]
  - [   0.0006356127560139,  0.0014995686942711, -0.0788268744945526 ]
  - [   0.0006501633324660,  0.0015508092474192, -0.0788776502013206 ]
  - [   0.0006355468649417,  0.0015032854862511, -0.0789268165826797 ]
  - [   0.0006349387113005,  0.0016012333799154, -0.0788262337446213 ]
  - [   0.0006503826007247,  0.0015523564070463, -0.0788763165473938 ]
  - [   0.0006004486931488,  0.0014650744851679, -0.0789337083697319 ]
  - [   0.0005996815161780,  0.0016427834052593, -0.0788279473781586 ]
  - [   0.0006895586848259,  0.0015557897277176, -0.0788822844624519 ]
  - [   0.0006335093639791,  0.0015578558668494, -0.0788666456937790 ]
  - [   0.0006338921957649,  0.0015560406027362, -0.0789010897278786 ]
  - [   0.0006628616247326,  0.0015566907823086, -0.0788824781775475 ]
  - [   0.0005982837174088,  0.0016410674434155, -0.0789276659488678 ]
  - [   0.0005963493604213,  0.0014680461026728, -0.0788198262453079 ]
  - [   0.0006775928777643,  0.0015532785328105, -0.0788750946521759 ]
  - [   0.0008181317825802,  0.0001465010864194,  0.0794345140457153 ]
  - [   0.0008511197520420, -0.0053379824385047,  0.0800956040620804 ]
  - [  -0.0009812249336392, -0.0025742640718818,  0.0797627419233322 ]
  - [   0.0007877049501985, -0.0052739065140486,  0.0794430971145630 ]
  - [   0.0008313974831253,  0.0001678820699453,  0.0800998210906982 ]
  - [  -0.0009870626963675, -0.0025805460754782,  0.0797695443034172 ]
  - [  -0.0009397002868354, -0.0025749234482646,  0.0798208191990852 ]
  - [  -0.0009398171096109, -0.0025751795619726,  0.0797059535980225 ]
  - [  -0.0008847992285155, -0.0025748787447810,  0.0797628611326218 ]
  - [  -0.0009487802744843, -0.0025400843005627,  0.0795801654458046 ]
  - [  -0.0009478968568146, -0.0026242895983160,  0.0799669474363327 ]
  - [  -0.0008852949249558, -0.0025798538699746,  0.0797713994979858 ]
  - [  -0.0009419672423974, -0.0025544371455908,  0.0798610448837280 ]
  - [  -0.0009428113698959, -0.0026050927117467,  0.0796833336353302 ]
  - [  -0.0008971447823569, -0.0025797709822655,  0.0797716081142426 ]
  - [  -0.0009348062449135, -0.0026469742879272,  0.0797004699707031 ]
  - [  -0.0009347163140774, -0.0025130072608590,  0.0798429995775223 ]
  - [  -0.0009129253448918, -0.0025816617999226,  0.0797707438468933 ]
  - [   0.0036964872851968, -0.0002225888893008,  0.0047321487218142 ]
  - [   0.0037497468292713, -0.0002138828858733, -0.0054413084872067 ]
  - [  -0.0003204531967640, -0.0002191551029682, -0.0003138465399388 ]
  - [  -0.0003606607206166, -0.0002331323921680, -0.0001587333099451 ]
  - [  -0.0003618119808380, -0.0002335691824555, -0.0004308669012971 ]
  - [  -0.0003358364629094, -0.0002337638288736, -0.0002865368733183 ]
  - [  -0.0003615616296884, -0.0002331994473934, -0.0001718709245324 ]
  - [  -0.0003620088100433, -0.0002303908695467, -0.0004346910864115 ]
  - [  -0.0003356914967299, -0.0002316719474038, -0.0003007380291820 ]
  - [  -0.0003424302849453, -0.0002511888742447, -0.0002764141536318 ]
  - [  -0.0003347042948008, -0.0001836703449953, -0.0003591901040636 ]
  - [  -0.0003048676298931, -0.0002191406820202, -0.0003178503829986 ]
  - [  -0.0003365503216628, -0.0001892391592264, -0.0002759134804364 ]
  - [  -0.0003297187504359, -0.0002504579606466, -0.0003582889621612 ]
  - [  -0.0003007240302395, -0.0002204065094702, -0.0003187077527400 ]
  - [  -0.0003531099646352, -0.0002157599810744, -0.0003582723438740 ]
  - [  -0.0003503197222017, -0.0002215613785665, -0.0002595993282739 ]
  - [  -0.0003325728175696, -0.0002183763863286, -0.0003144693037029 ]
- atom:    1
  displacement:
    [  -0.0100000000000000,  0.0000000000000000,  0.0000000000000000 ]
  forces:
  - [   0.0215350128710270,  0.0019073425792158,  0.0416670925915241 ]
  - [   0.0000199449714273,  0.0018928274512291,  0.0416397228837013 ]
  - [   0.0000363924191333,  0.0018919378053397,  0.0415924265980721 ]
  - [   0.0002216578868683,  0.0018917804118246,  0.0416160412132740 ]
  - [   0.0008263417985290,  0.0021898197010159,  0.0416447073221207 ]
  - [   0.0008275948930532,  0.0015930389054120,  0.0415887385606766 ]
  - [   0.0002222018374596,  0.0018939191941172,  0.0416152551770210 ]
  - [   0.0008261525654234,  0.0015980072785169,  0.0416443571448326 ]
  - [   0.0008299929322675,  0.0021942537277937,  0.0415870025753975 ]
  - [   0.0004888828843832,  0.0018926723860204,  0.0416132397949696 ]
  - [   0.0005561523139477,  0.0018809341127053,  0.0416271612048149 ]
  - [   0.0005570503417403,  0.0019042545463890,  0.0416031293570995 ]
  - [   0.0004968214780092,  0.0018922317540273,  0.0416157282888889 ]
  - [   0.0005445480346680,  0.0018953472608700,  0.0416243374347687 ]
  - [   0.0005436426727101,  0.0018892578082159,  0.0416080802679062 ]
  - [   0.0004970710724592,  0.0018924382748082,  0.0416174493730068 ]
  - [   0.0005436968058348,  0.0019011739641428,  0.0416178926825523 ]
  - [   0.0005483181448653,  0.0018853363581002,  0.0416150242090225 ]
  - [   0.0009026005864143,  0.0012850407510996, -0.0011602693703026 ]
  - [   0.0012088082730770,  0.0012399274855852, -0.0010852018604055 ]
  - [   0.0012017068220302,  0.0013191383332014, -0.0012544589117169 ]
  - [   0.0009031891822815,  0.0012790299952030, -0.0011601665755734 ]
  - [   0.0012087048962712,  0.0013265330344439, -0.0010878234170377 ]
  - [   0.0012051484081894,  0.0012429794296622, -0.0012581711634994 ]
  - [   0.0010769776999950,  0.0012834109365940, -0.0011714515276253 ]
  - [   0.0011070417240262,  0.0012822523713112, -0.0011562819126993 ]
  - [   0.0011059646494687,  0.0012839827686548, -0.0011788350529969 ]
  - [   0.0011164918541908,  0.0012813957873732, -0.0011632961686701 ]
  - [   0.0010991105809808,  0.0012579158646986, -0.0011734407162294 ]
  - [   0.0010993753094226,  0.0013067614054307, -0.0011629455257207 ]
  - [   0.0008525708690286,  0.0012836046516895, -0.0011616959236562 ]
  - [   0.0015026954934001,  0.0012841750867665, -0.0008046758593991 ]
  - [   0.0015012475196272,  0.0012839154805988, -0.0015179500915110 ]
  - [   0.0011140052229166,  0.0012829219922423, -0.0011713901767507 ]
  - [   0.0011006658896804,  0.0013060896890238, -0.0011598229175434 ]
  - [   0.0011006172280759,  0.0012571623083204, -0.0011671317042783 ]
  - [  -0.0012213457375765, -0.0019198424415663, -0.0410362780094147 ]
  - [  -0.0010303165763617, -0.0018432440701872, -0.0410891585052013 ]
  - [  -0.0010338305728510, -0.0020106711890548, -0.0409694612026215 ]
  - [  -0.0012173894792795, -0.0019329233327881, -0.0410368144512177 ]
  - [  -0.0010310057550669, -0.0020122355781496, -0.0410897061228752 ]
  - [  -0.0010316616389900, -0.0018425488378853, -0.0409691855311394 ]
  - [  -0.0009408462792635, -0.0019268807955086, -0.0410284325480461 ]
  - [  -0.0010143425315619, -0.0019266431918368, -0.0410374775528908 ]
  - [  -0.0010171753820032, -0.0019275872036815, -0.0410222522914410 ]
  - [  -0.0012940354645252, -0.0019270910415798, -0.0410261452198029 ]
  - [  -0.0005067820893601, -0.0019269508775324, -0.0414409041404724 ]
  - [  -0.0005058954702690, -0.0019263373687863, -0.0406169891357422 ]
  - [  -0.0009945331839845, -0.0019257717067376, -0.0410304181277752 ]
  - [  -0.0009812305215746, -0.0019072489812970, -0.0410326272249222 ]
  - [  -0.0009816949022934, -0.0019447859376669, -0.0410264544188976 ]
  - [  -0.0009900755248964, -0.0019264842849225, -0.0410300940275192 ]
  - [  -0.0009830249473453, -0.0019435465801507, -0.0410378687083721 ]
  - [  -0.0009827294852585, -0.0019076707540080, -0.0410198867321014 ]
  - [  -0.0025070859119296,  0.0015529501251876, -0.0748520940542221 ]
  - [  -0.0024458505213261,  0.0015493755927309, -0.0828233882784843 ]