phonopy:
  version: "2.37.1"
  frequency_unit_conversion_factor: 15.633302
  symmetry_tolerance: 1.00000e-05

space_group:
  type: "Im-3m"
  number: 229
  Hall_symbol: "-I 4 2 3"

primitive_matrix:
- [  1.000000000000000,  0.000000000000000, -0.000000000000000 ]
- [  1.000000000000000, -1.000000000000000,  0.000000000000000 ]
- [  1.000000000000000,  0.000000000000000, -1.000000000000000 ]

supercell_matrix:
- [   4,   0,   0 ]
- [   0,   4,   0 ]
- [   0,   0,   4 ]

primitive_cell:
  lattice:
  - [     1.102290471041098,     1.558874179363352,     2.700049274007164 ] # a
  - [     1.102290519150168,    -3.117748338768294,     0.000000000000000 ] # b
  - [     1.102290496203984,     1.558874159404942,    -2.700049274007164 ] # c
  points:
  - symbol: Sn # 1
    coordinates: [  0.000000000000000,  0.000000000000000,  0.000000000000000 ]
    mass: 118.710000
  reciprocal_lattice: # without 2pi
  - [     0.302400623705543,     0.106914768055784,     0.185181806699275 ] # a*
  - [     0.302400623705543,    -0.213829529219686,     0.000000002199399 ] # b*
  - [     0.302400623705543,     0.106914768055784,    -0.185181804671377 ] # c*

unit_cell:
  lattice:
  - [     3.306871486395251,     0.000000000000000,     0.000000000000000 ] # a
  - [    -1.102290519150168,     3.117748338768294,     0.000000000000000 ] # b
  - [    -1.102290496203985,    -1.558874159404942,     2.700049274007164 ] # c
  points:
  - symbol: Sn # 1
    coordinates: [  0.000000000000000,  0.000000000000000,  0.000000000000000 ]
    mass: 118.710000
    reduced_to: 1

supercell:
  lattice:
  - [    13.227485945581003,     0.000000000000000,     0.000000000000000 ] # a
  - [    -4.409162076600672,    12.470993355073176,     0.000000000000000 ] # b
  - [    -4.409161984815941,    -6.235496637619767,    10.800197096028654 ] # c
  points:
  - symbol: Sn # 1
    coordinates: [  0.000000000000000,  0.000000000000000,  0.000000000000000 ]
    mass: 118.710000
    reduced_to: 1
  - symbol: Sn # 2
    coordinates: [  0.250000000000000,  0.000000000000000,  0.000000000000000 ]
    mass: 118.710000
    reduced_to: 1
  - symbol: Sn # 3
    coordinates: [  0.500000000000000,  0.000000000000000,  0.000000000000000 ]
    mass: 118.710000
    reduced_to: 1
  - symbol: Sn # 4
    coordinates: [  0.750000000000000,  0.000000000000000,  0.000000000000000 ]
    mass: 118.710000
    reduced_to: 1
  - symbol: Sn # 5
    coordinates: [  0.000000000000000,  0.250000000000000,  0.000000000000000 ]
    mass: 118.710000
    reduced_to: 1
  - symbol: Sn # 6
    coordinates: [  0.250000000000000,  0.250000000000000,  0.000000000000000 ]
    mass: 118.710000
    reduced_to: 1
  - symbol: Sn # 7
    coordinates: [  0.500000000000000,  0.250000000000000,  0.000000000000000 ]
    mass: 118.710000
    reduced_to: 1
  - symbol: Sn # 8
    coordinates: [  0.750000000000000,  0.250000000000000,  0.000000000000000 ]
    mass: 118.710000
    reduced_to: 1
  - symbol: Sn # 9
    coordinates: [  0.000000000000000,  0.500000000000000,  0.000000000000000 ]
    mass: 118.710000
    reduced_to: 1
  - symbol: Sn # 10
    coordinates: [  0.250000000000000,  0.500000000000000,  0.000000000000000 ]
    mass: 118.710000
    reduced_to: 1
  - symbol: Sn # 11
    coordinates: [  0.500000000000000,  0.500000000000000,  0.000000000000000 ]
    mass: 118.710000
    reduced_to: 1
  - symbol: Sn # 12
    coordinates: [  0.750000000000000,  0.500000000000000,  0.000000000000000 ]
    mass: 118.710000
    reduced_to: 1
  - symbol: Sn # 13
    coordinates: [  0.000000000000000,  0.750000000000000,  0.000000000000000 ]
    mass: 118.710000
    reduced_to: 1
  - symbol: Sn # 14
    coordinates: [  0.250000000000000,  0.750000000000000,  0.000000000000000 ]
    mass: 118.710000
    reduced_to: 1
  - symbol: Sn # 15
    coordinates: [  0.500000000000000,  0.750000000000000,  0.000000000000000 ]
    mass: 118.710000
    reduced_to: 1
  - symbol: Sn # 16
    coordinates: [  0.750000000000000,  0.750000000000000,  0.000000000000000 ]
    mass: 118.710000
    reduced_to: 1
  - symbol: Sn # 17
    coordinates: [  0.000000000000000,  0.000000000000000,  0.250000000000000 ]
    mass: 118.710000
    reduced_to: 1
  - symbol: Sn # 18
    coordinates: [  0.250000000000000,  0.000000000000000,  0.250000000000000 ]
    mass: 118.710000
    reduced_to: 1
  - symbol: Sn # 19
    coordinates: [  0.500000000000000,  0.000000000000000,  0.250000000000000 ]
    mass: 118.710000
    reduced_to: 1
  - symbol: Sn # 20
    coordinates: [  0.750000000000000,  0.000000000000000,  0.250000000000000 ]
    mass: 118.710000
    reduced_to: 1
  - symbol: Sn # 21
    coordinates: [  0.000000000000000,  0.250000000000000,  0.250000000000000 ]
    mass: 118.710000
    reduced_to: 1
  - symbol: Sn # 22
    coordinates: [  0.250000000000000,  0.250000000000000,  0.250000000000000 ]
    mass: 118.710000
    reduced_to: 1
  - symbol: Sn # 23
    coordinates: [  0.500000000000000,  0.250000000000000,  0.250000000000000 ]
    mass: 118.710000
    reduced_to: 1
  - symbol: Sn # 24
    coordinates: [  0.750000000000000,  0.250000000000000,  0.250000000000000 ]
    mass: 118.710000
    reduced_to: 1
  - symbol: Sn # 25
    coordinates: [  0.000000000000000,  0.500000000000000,  0.250000000000000 ]
    mass: 118.710000
    reduced_to: 1
  - symbol: Sn # 26
    coordinates: [  0.250000000000000,  0.500000000000000,  0.250000000000000 ]
    mass: 118.710000
    reduced_to: 1
  - symbol: Sn # 27
    coordinates: [  0.500000000000000,  0.500000000000000,  0.250000000000000 ]
    mass: 118.710000
    reduced_to: 1
  - symbol: Sn # 28
    coordinates: [  0.750000000000000,  0.500000000000000,  0.250000000000000 ]
    mass: 118.710000
    reduced_to: 1
  - symbol: Sn # 29
    coordinates: [  0.000000000000000,  0.750000000000000,  0.250000000000000 ]
    mass: 118.710000
    reduced_to: 1
  - symbol: Sn # 30
    coordinates: [  0.250000000000000,  0.750000000000000,  0.250000000000000 ]
    mass: 118.710000
    reduced_to: 1
  - symbol: Sn # 31
    coordinates: [  0.500000000000000,  0.750000000000000,  0.250000000000000 ]
    mass: 118.710000
    reduced_to: 1
  - symbol: Sn # 32
    coordinates: [  0.750000000000000,  0.750000000000000,  0.250000000000000 ]
    mass: 118.710000
    reduced_to: 1
  - symbol: Sn # 33
    coordinates: [  0.000000000000000,  0.000000000000000,  0.500000000000000 ]
    mass: 118.710000
    reduced_to: 1
  - symbol: Sn # 34
    coordinates: [  0.250000000000000,  0.000000000000000,  0.500000000000000 ]
    mass: 118.710000
    reduced_to: 1
  - symbol: Sn # 35
    coordinates: [  0.500000000000000,  0.000000000000000,  0.500000000000000 ]
    mass: 118.710000
    reduced_to: 1
  - symbol: Sn # 36
    coordinates: [  0.750000000000000,  0.000000000000000,  0.500000000000000 ]
    mass: 118.710000
    reduced_to: 1
  - symbol: Sn # 37
    coordinates: [  0.000000000000000,  0.250000000000000,  0.500000000000000 ]
    mass: 118.710000
    reduced_to: 1
  - symbol: Sn # 38
    coordinates: [  0.250000000000000,  0.250000000000000,  0.500000000000000 ]
    mass: 118.710000
    reduced_to: 1
  - symbol: Sn # 39
    coordinates: [  0.500000000000000,  0.250000000000000,  0.500000000000000 ]
    mass: 118.710000
    reduced_to: 1
  - symbol: Sn # 40
    coordinates: [  0.750000000000000,  0.250000000000000,  0.500000000000000 ]
    mass: 118.710000
    reduced_to: 1
  - symbol: Sn # 41
    coordinates: [  0.000000000000000,  0.500000000000000,  0.500000000000000 ]
    mass: 118.710000
    reduced_to: 1
  - symbol: Sn # 42
    coordinates: [  0.250000000000000,  0.500000000000000,  0.500000000000000 ]
    mass: 118.710000
    reduced_to: 1
  - symbol: Sn # 43
    coordinates: [  0.500000000000000,  0.500000000000000,  0.500000000000000 ]
    mass: 118.710000
    reduced_to: 1
  - symbol: Sn # 44
    coordinates: [  0.750000000000000,  0.500000000000000,  0.500000000000000 ]
    mass: 118.710000
    reduced_to: 1
  - symbol: Sn # 45
    coordinates: [  0.000000000000000,  0.750000000000000,  0.500000000000000 ]
    mass: 118.710000
    reduced_to: 1
  - symbol: Sn # 46
    coordinates: [  0.250000000000000,  0.750000000000000,  0.500000000000000 ]
    mass: 118.710000
    reduced_to: 1
  - symbol: Sn # 47
    coordinates: [  0.500000000000000,  0.750000000000000,  0.500000000000000 ]
    mass: 118.710000
    reduced_to: 1
  - symbol: Sn # 48
    coordinates: [  0.750000000000000,  0.750000000000000,  0.500000000000000 ]
    mass: 118.710000
    reduced_to: 1
  - symbol: Sn # 49
    coordinates: [  0.000000000000000,  0.000000000000000,  0.750000000000000 ]
    mass: 118.710000
    reduced_to: 1
  - symbol: Sn # 50
    coordinates: [  0.250000000000000,  0.000000000000000,  0.750000000000000 ]
    mass: 118.710000
    reduced_to: 1
  - symbol: Sn # 51
    coordinates: [  0.500000000000000,  0.000000000000000,  0.750000000000000 ]
    mass: 118.710000
    reduced_to: 1
  - symbol: Sn # 52
    coordinates: [  0.750000000000000,  0.000000000000000,  0.750000000000000 ]
    mass: 118.710000
    reduced_to: 1
  - symbol: Sn # 53
    coordinates: [  0.000000000000000,  0.250000000000000,  0.750000000000000 ]
    mass: 118.710000
    reduced_to: 1
  - symbol: Sn # 54
    coordinates: [  0.250000000000000,  0.250000000000000,  0.750000000000000 ]
    mass: 118.710000
    reduced_to: 1
  - symbol: Sn # 55
    coordinates: [  0.500000000000000,  0.250000000000000,  0.750000000000000 ]
    mass: 118.710000
    reduced_to: 1
  - symbol: Sn # 56
    coordinates: [  0.750000000000000,  0.250000000000000,  0.750000000000000 ]
    mass: 118.710000
    reduced_to: 1
  - symbol: Sn # 57
    coordinates: [  0.000000000000000,  0.500000000000000,  0.750000000000000 ]
    mass: 118.710000
    reduced_to: 1
  - symbol: Sn # 58
    coordinates: [  0.250000000000000,  0.500000000000000,  0.750000000000000 ]
    mass: 118.710000
    reduced_to: 1
  - symbol: Sn # 59
    coordinates: [  0.500000000000000,  0.500000000000000,  0.750000000000000 ]
    mass: 118.710000
    reduced_to: 1
  - symbol: Sn # 60
    coordinates: [  0.750000000000000,  0.500000000000000,  0.750000000000000 ]
    mass: 118.710000
    reduced_to: 1
  - symbol: Sn # 61
    coordinates: [  0.000000000000000,  0.750000000000000,  0.750000000000000 ]
    mass: 118.710000
    reduced_to: 1
  - symbol: Sn # 62
    coordinates: [  0.250000000000000,  0.750000000000000,  0.750000000000000 ]
    mass: 118.710000
    reduced_to: 1
  - symbol: Sn # 63
    coordinates: [  0.500000000000000,  0.750000000000000,  0.750000000000000 ]
    mass: 118.710000
    reduced_to: 1
  - symbol: Sn # 64
    coordinates: [  0.750000000000000,  0.750000000000000,  0.750000000000000 ]
    mass: 118.710000
    reduced_to: 1

displacements:
- atom:    1
  displacement:
    [   0.0100000000000000,  0.0000000000000000,  0.0000000000000000 ]
  forces:
  - [  -0.0158060491085052, -0.0000006631016731, -0.0000007972848834 ]
  - [   0.0051266150549054, -0.0000001210719347, -0.0000001948137651 ]
  - [   0.0022567082196474,  0.0000000791624188,  0.0000003760156346 ]
  - [   0.0049136467278004, -0.0000001890584826, -0.0000000866893970 ]
  - [  -0.0005150642246008, -0.0019530709832907,  0.0000009165278243 ]
  - [   0.0011026170104742,  0.0007633939385414,  0.0000001376220240 ]
  - [   0.0003532581031322,  0.0002312122378498,  0.0000001481503205 ]
  - [  -0.0006160344928503,  0.0007153656333685, -0.0000001061578985 ]
  - [   0.0003177411854267, -0.0006855368847027,  0.0000002202614269 ]
  - [  -0.0001043695956469,  0.0000635174219497, -0.0000002418183840 ]
  - [   0.0001677442342043,  0.0001839495380409,  0.0000002648521331 ]
  - [  -0.0001042969524860,  0.0000683898251737,  0.0000002510350896 ]
  - [  -0.0005291346460581, -0.0019651753827929,  0.0000001146690920 ]
  - [  -0.0006181262433529,  0.0007285345345736,  0.0000002719461918 ]
  - [   0.0003567133098841,  0.0002256967127323, -0.0000001452863216 ]
  - [   0.0010817041620612,  0.0007032137364149, -0.0000002800264838 ]
  - [  -0.0005152663215995,  0.0009765960276127, -0.0016925091622397 ]
  - [   0.0011038063094020, -0.0003810096532106,  0.0006614651065320 ]
  - [   0.0003532748669386, -0.0001153427874669,  0.0002004767593462 ]
  - [  -0.0006165392696857, -0.0003577787429094,  0.0006199224153534 ]
  - [   0.0010814778506756, -0.0003508664667606, -0.0006090067327023 ]
  - [  -0.0005304180085659,  0.0009826475288719,  0.0017016013152897 ]
  - [  -0.0006172005087137, -0.0003644935786724, -0.0006310641765594 ]
  - [   0.0003577275201678, -0.0001129815354943, -0.0001953858882189 ]
  - [   0.0000976948067546, -0.0002080351114273, -0.0000754296197556 ]
  - [  -0.0000126753002405, -0.0001448374241590,  0.0002564378082752 ]
  - [   0.0000948607921600,  0.0001665484160185,  0.0001393258571625 ]
  - [  -0.0000411262735724, -0.0000020880252123,  0.0000013160733943 ]
  - [  -0.0000123819336295, -0.0001493589370511, -0.0002535907551646 ]
  - [   0.0000953841954470, -0.0002038711681962,  0.0000744348944863 ]
  - [  -0.0000410247594118, -0.0000005057081580, -0.0000025032686608 ]
  - [   0.0000970046967268,  0.0001695157261565, -0.0001424382207915 ]
  - [   0.0003178827464581,  0.0003429428907111, -0.0005914225475863 ]
  - [  -0.0001046583056450, -0.0000318426173180,  0.0000580733176321 ]
  - [   0.0001680850982666, -0.0000919204758247,  0.0001609648461454 ]
  - [  -0.0001041172072291, -0.0000345166918123,  0.0000612016738160 ]
  - [   0.0000966778025031,  0.0000393036752939, -0.0002155979454983 ]
  - [  -0.0000118669122458,  0.0002936217933893,  0.0000056444841903 ]
  - [   0.0000943485647440,  0.0000361427664757,  0.0002159053692594 ]
  - [  -0.0000416031107306,  0.0000017806887627,  0.0000016004726149 ]
  - [   0.0001676399260759, -0.0000917913275771, -0.0001569789601490 ]
  - [  -0.0001046974211931, -0.0000333581119776, -0.0000564011861570 ]
  - [   0.0003183437511325,  0.0003431364893913,  0.0005955529632047 ]
  - [  -0.0001046871766448, -0.0000321747502312, -0.0000540413384442 ]
  - [   0.0000963918864727,  0.0000373516231775, -0.0002117232652381 ]
  - [  -0.0000419672578573,  0.0000018654391170,  0.0000037074569263 ]
  - [   0.0000977311283350,  0.0000380855053663,  0.0002208641089965 ]
  - [  -0.0000136503949761,  0.0002945121377707, -0.0000009861287253 ]
  - [  -0.0005299458280206,  0.0009827653411776, -0.0017035109922290 ]
  - [  -0.0006172023713589, -0.0003642681986094,  0.0006281847599894 ]
  - [   0.0003571696579456, -0.0001137088984251,  0.0001931441656779 ]
  - [   0.0010806359350681, -0.0003522411861923,  0.0006059541483410 ]
  - [  -0.0000111972913146, -0.0001442686188966, -0.0002582912857179 ]
  - [   0.0000949539244175,  0.0001669339835644, -0.0001420838962076 ]
  - [  -0.0000409185886383, -0.0000012870877981, -0.0000047816961342 ]
  - [   0.0000953823328018, -0.0002075250376947,  0.0000726337020751 ]
  - [   0.0000957250595093, -0.0002040732651949, -0.0000763803400332 ]
  - [  -0.0000420697033405, -0.0000011473894119,  0.0000003992499842 ]
  - [   0.0000980952754617,  0.0001690717908787,  0.0001405938965036 ]
  - [  -0.0000128112733364, -0.0001511294394732,  0.0002518224937376 ]
  - [   0.0011037029325962, -0.0003810076741502, -0.0006621911888942 ]
  - [   0.0003542257472873, -0.0001148267765529, -0.0002030383911915 ]
  - [  -0.0006180740892887, -0.0003569310356397, -0.0006227081175894 ]
  - [  -0.0005157664418221,  0.0009777590166777,  0.0016899213660508 ]

force_constants:
  format: "full"
  shape: [ 64, 64 ]
  elements:
  - # (1, 1)
    - [     1.580604957336353,     0.000000000222789,     0.000000000072345 ]
    - [     0.000000000222789,     1.580604957357888,    -0.000000000076478 ]
    - [     0.000000000072345,    -0.000000000076478,     1.580604957145329 ]
  - # (1, 2)
    - [    -0.501994289018549,    -0.000000001480593,    -0.000000001120889 ]
    - [    -0.000000006491784,     0.121534720677613,    -0.000000000504857 ]
    - [    -0.000000003207877,    -0.000000000299724,     0.121534719829453 ]
  - # (1, 3)
    - [    -0.225675619452881,    -0.000000000976496,    -0.000000000600095 ]
    - [    -0.000000002619409,    -0.007562467152044,    -0.000000000031152 ]
    - [    -0.000000001255928,     0.000000000210685,    -0.007562467107347 ]
  - # (1, 4)
    - [    -0.501994289018549,    -0.000000001480593,    -0.000000001120889 ]
    - [    -0.000000006491784,     0.121534720677613,    -0.000000000504857 ]
    - [    -0.000000003207877,    -0.000000000299724,     0.121534719829453 ]
  - # (1, 5)
    - [     0.052253718153041,     0.195956264444410,    -0.000000000468290 ]
    - [     0.195956264221289,    -0.432713284957748,     0.000000001446097 ]
    - [    -0.000000000100857,     0.000000001112853,     0.121534720138345 ]
  - # (1, 6)
    - [    -0.109232356246428,    -0.073294618480354,    -0.000000000041316 ]
    - [    -0.073294618125854,    -0.161059479273078,    -0.000000000179168 ]
    - [     0.000000000178537,     0.000000000109276,    -0.057405235086254 ]
  - # (1, 7)
    - [    -0.035539776624768,    -0.022861424960132,    -0.000000000050209 ]
    - [    -0.022861424520428,     0.000034519729701,    -0.000000000193131 ]
    - [     0.000000000207095,     0.000000000033460,     0.002257983684042 ]
  - # (1, 8)
    - [     0.061720148425828,    -0.072204765916086,     0.000000000193198 ]
    - [    -0.072204765373881,     0.010663667631460,    -0.000000000329720 ]
    - [     0.000000000334805,    -0.000000000224707,     0.022060325523281 ]
  - # (1, 9)
    - [    -0.031797262251127,     0.068546351365185,    -0.000000000251767 ]
    - [     0.068546351414232,    -0.201440823515877,     0.000000000329161 ]
    - [     0.000000000008425,     0.000000000319184,    -0.007562467286047 ]
  - # (1, 10)
    - [     0.010451125577983,    -0.006601185130087,    -0.000000000025939 ]
    - [    -0.006601184817204,    -0.045956382345361,    -0.000000000099659 ]
    - [     0.000000000171154,    -0.000000000031658,     0.002257983671640 ]
  - # (1, 11)
    - [    -0.016782261956618,    -0.018371761711401,     0.000000000021299 ]
    - [    -0.018371761402016,    -0.029773059568863,    -0.000000000214552 ]
    - [     0.000000000196054,     0.000000000051454,    -0.003791464920575 ]
  - # (1, 12)
    - [     0.010451125577983,    -0.006601185130087,    -0.000000000025939 ]
    - [    -0.006601184817204,    -0.045956382345361,    -0.000000000099659 ]
    - [     0.000000000171154,    -0.000000000031658,     0.002257983671640 ]
  - # (1, 13)
    - [     0.052253718153041,     0.195956264444410,    -0.000000000468290 ]
    - [     0.195956264221289,    -0.432713284957748,     0.000000001446097 ]
    - [    -0.000000000100857,     0.000000001112853,     0.121534720138345 ]
  - # (1, 14)
    - [     0.061720148425828,    -0.072204765916086,     0.000000000193198 ]
    - [    -0.072204765373881,     0.010663667631460,    -0.000000000329720 ]
    - [     0.000000000334805,    -0.000000000224707,     0.022060325523281 ]
  - # (1, 15)
    - [    -0.035539776624768,    -0.022861424960132,    -0.000000000050209 ]
    - [    -0.022861424520428,     0.000034519729701,    -0.000000000193131 ]
    - [     0.000000000207095,     0.000000000033460,     0.002257983684042 ]
  - # (1, 16)
    - [    -0.109232356246428,    -0.073294618480354,    -0.000000000041316 ]
    - [    -0.073294618125854,    -0.161059479273078,    -0.000000000179168 ]
    - [     0.000000000178537,     0.000000000109276,    -0.057405235086254 ]
  - # (1, 17)
    - [     0.052253719371491,    -0.097978130815576,     0.169703102414213 ]
    - [    -0.097978131583650,    -0.017027283086690,     0.239996430284624 ]
    - [     0.169703100749680,     0.239996425472570,    -0.294151283771349 ]
  - # (1, 18)
    - [    -0.109232356457776,     0.036647308269400,    -0.063475001640761 ]
    - [     0.036647308605734,    -0.083318795576062,     0.044883603624309 ]
    - [    -0.063475001566559,     0.044883603920233,    -0.135145917727978 ]
  - # (1, 19)
    - [    -0.035539776690035,     0.011430712303881,    -0.019798574738092 ]
    - [     0.011430712421772,     0.001702117992134,     0.000962787863074 ]
    - [    -0.019798574356821,     0.000962788071569,     0.000590385696693 ]
  - # (1, 20)
    - [     0.061720148184356,     0.036102383172233,    -0.062531161694022 ]
    - [     0.036102383463304,     0.019211161809364,     0.004934896838805 ]
    - [    -0.062531161391124,     0.004934897279663,     0.013512832159082 ]
  - # (1, 21)
    - [    -0.109232357083503,     0.036647308525753,     0.063475001031315 ]
    - [     0.036647308607958,    -0.083318795481529,    -0.044883603140681 ]
    - [     0.063475001176879,    -0.044883603133151,    -0.135145916396064 ]
  - # (1, 22)
    - [     0.052253721019268,    -0.097978130490503,    -0.169703099219018 ]
    - [    -0.097978130252468,    -0.017027283040162,    -0.239996428835162 ]
    - [    -0.169703099151610,    -0.239996428589648,    -0.294151285230903 ]
  - # (1, 23)
    - [     0.061720147923389,     0.036102383409308,     0.062531161729628 ]
    - [     0.036102383818533,     0.019211161935958,    -0.004934896803544 ]
    - [     0.062531161657578,    -0.004934896953198,     0.013512832919867 ]
  - # (1, 24)
    - [    -0.035539776791607,     0.011430712241391,     0.019798574447629 ]
    - [     0.011430712087133,     0.001702118001232,    -0.000962787993128 ]
    - [     0.019798574381516,    -0.000962787895192,     0.000590385900267 ]
  - # (1, 25)
    - [    -0.009620523124654,     0.020594552114597,     0.007507250041192 ]
    - [     0.020594552698660,    -0.024217135631388,    -0.018345345843875 ]
    - [     0.007507250163886,    -0.018345345301064,     0.000590385954764 ]
  - # (1, 26)
    - [     0.001242613413567,     0.014720345656221,    -0.025496386350762 ]
    - [     0.014720345420636,     0.079688696506982,     0.057309978449239 ]
    - [    -0.025496386534490,     0.057309978300544,     0.013512831998369 ]
  - # (1, 27)
    - [    -0.009620522914513,    -0.016798745448998,    -0.014081780297585 ]
    - [    -0.016798745248076,    -0.021499030258283,    -0.019914645094747 ]
    - [    -0.014081780193656,    -0.019914644815309,    -0.002127720016924 ]
  - # (1, 28)
    - [     0.004145208097767,     0.000116289289129,    -0.000201419054665 ]
    - [     0.000116289532169,     0.004227437010317,     0.000142424599845 ]
    - [    -0.000201418903364,     0.000142424796474,     0.004062978994157 ]
  - # (1, 29)
    - [     0.001242613180107,     0.014720345836259,     0.025496386322968 ]
    - [     0.014720345685799,     0.079688696326515,    -0.057309978913015 ]
    - [     0.025496386511694,    -0.057309978511220,     0.013512833084127 ]
  - # (1, 30)
    - [    -0.009620523046652,     0.020594552049906,    -0.007507250272015 ]
    - [     0.020594552588445,    -0.024217135543507,     0.018345345738041 ]
    - [    -0.007507250232088,     0.018345345889230,     0.000590385657800 ]
  - # (1, 31)
    - [     0.004145208152235,     0.000116289375773,     0.000201418887789 ]
    - [     0.000116289589454,     0.004227437102426,    -0.000142424806123 ]
    - [     0.000201419018000,    -0.000142424626710,     0.004062979020963 ]
  - # (1, 32)
    - [    -0.009620523147564,    -0.016798745614950,     0.014081780385617 ]
    - [    -0.016798745229180,    -0.021499030002057,     0.019914644636444 ]
    - [     0.014081780530368,     0.019914645000424,    -0.002127720041479 ]
  - # (1, 33)
    - [    -0.031797261983781,    -0.034273175627146,     0.059362881137462 ]
    - [    -0.034273175713096,    -0.056032057130837,     0.083951792543714 ]
    - [     0.059362880643480,     0.083951790942530,    -0.152971234226570 ]
  - # (1, 34)
    - [     0.010451125588377,     0.003300592646349,    -0.005716794018763 ]
    - [     0.003300593003681,    -0.009795607515446,     0.020877432627466 ]
    - [    -0.005716794038925,     0.020877432884102,    -0.033902791015767 ]
  - # (1, 35)
    - [    -0.016782261984296,     0.009185880610560,    -0.015910412381910 ]
    - [     0.009185880915507,    -0.010286863359378,     0.011250360229932 ]
    - [    -0.015910412244332,     0.011250360478630,    -0.023277660840047 ]
  - # (1, 36)
    - [     0.010451125588377,     0.003300592646349,    -0.005716794018763 ]
    - [     0.003300593003681,    -0.009795607515446,     0.020877432627466 ]
    - [    -0.005716794038925,     0.020877432884102,    -0.033902791015767 ]
  - # (1, 37)
    - [    -0.009620523227709,    -0.003795806812323,     0.021589030642015 ]
    - [    -0.003795806743281,     0.010276040860774,     0.001569299259145 ]
    - [     0.021589030618472,     0.001569299101152,    -0.033902790477415 ]
  - # (1, 38)
    - [     0.001242613540806,    -0.029440691060948,    -0.000000000202681 ]
    - [    -0.029440690816275,    -0.019575099358116,    -0.000000000027196 ]
    - [    -0.000000000033431,     0.000000000258319,     0.112776627343756 ]
  - # (1, 39)
    - [    -0.009620523098255,    -0.003795806913051,    -0.021589030755496 ]
    - [    -0.003795806795105,     0.010276040877245,    -0.001569299593456 ]
    - [    -0.021589030360242,    -0.001569299148648,    -0.033902790758189 ]
  - # (1, 40)
    - [     0.004145208117197,    -0.000232578556391,    -0.000000000090155 ]
    - [    -0.000232578333358,     0.003980750266189,    -0.000000000077856 ]
    - [     0.000000000049923,     0.000000000097771,     0.004309665867198 ]
  - # (1, 41)
    - [    -0.016782262167413,     0.009185880668534,     0.015910412247071 ]
    - [     0.009185880915804,    -0.010286863349769,    -0.011250360410166 ]
    - [     0.015910412405886,    -0.011250360220835,    -0.023277660521612 ]
  - # (1, 42)
    - [     0.010451125559333,     0.003300592570019,     0.005716793944738 ]
    - [     0.003300593091540,    -0.009795607818499,    -0.020877433121188 ]
    - [     0.005716794504821,    -0.020877432760593,    -0.033902790494780 ]
  - # (1, 43)
    - [    -0.031797261205700,    -0.034273175001297,    -0.059362880243690 ]
    - [    -0.034273174744939,    -0.056032056961091,    -0.083951791991627 ]
    - [    -0.059362880192658,    -0.083951791778805,    -0.152971235096530 ]
  - # (1, 44)
    - [     0.010451125559333,     0.003300592570019,     0.005716793944738 ]
    - [     0.003300593091540,    -0.009795607818499,    -0.020877433121188 ]
    - [     0.005716794504821,    -0.020877432760593,    -0.033902790494780 ]
  - # (1, 45)
    - [    -0.009620523227709,    -0.003795806812323,     0.021589030642015 ]
    - [    -0.003795806743281,     0.010276040860774,     0.001569299259145 ]
    - [     0.021589030618472,     0.001569299101152,    -0.033902790477415 ]
  - # (1, 46)
    - [     0.004145208117197,    -0.000232578556391,    -0.000000000090155 ]
    - [    -0.000232578333358,     0.003980750266189,    -0.000000000077856 ]
    - [     0.000000000049923,     0.000000000097771,     0.004309665867198 ]
  - # (1, 47)
    - [    -0.009620523098255,    -0.003795806913051,    -0.021589030755496 ]
    - [    -0.003795806795105,     0.010276040877245,    -0.001569299593456 ]
    - [    -0.021589030360242,    -0.001569299148648,    -0.033902790758189 ]
  - # (1, 48)
    - [     0.001242613540806,    -0.029440691060948,    -0.000000000202681 ]
    - [    -0.029440690816275,    -0.019575099358116,    -0.000000000027196 ]
    - [    -0.000000000033431,     0.000000000258319,     0.112776627343756 ]
  - # (1, 49)
    - [     0.052253719371491,    -0.097978130815576,     0.169703102414213 ]
    - [    -0.097978131583650,    -0.017027283086690,     0.239996430284624 ]
    - [     0.169703100749680,     0.239996425472570,    -0.294151283771349 ]
  - # (1, 50)
    - [     0.061720148184356,     0.036102383172233,    -0.062531161694022 ]
    - [     0.036102383463304,     0.019211161809364,     0.004934896838805 ]
    - [    -0.062531161391124,     0.004934897279663,     0.013512832159082 ]
  - # (1, 51)
    - [    -0.035539776690035,     0.011430712303881,    -0.019798574738092 ]
    - [     0.011430712421772,     0.001702117992134,     0.000962787863074 ]
    - [    -0.019798574356821,     0.000962788071569,     0.000590385696693 ]
  - # (1, 52)
    - [    -0.109232356457776,     0.036647308269400,    -0.063475001640761 ]
    - [     0.036647308605734,    -0.083318795576062,     0.044883603624309 ]
    - [    -0.063475001566559,     0.044883603920233,    -0.135145917727978 ]
  - # (1, 53)
    - [     0.001242613180107,     0.014720345836259,     0.025496386322968 ]
    - [     0.014720345685799,     0.079688696326515,    -0.057309978913015 ]
    - [     0.025496386511694,    -0.057309978511220,     0.013512833084127 ]
  - # (1, 54)
    - [    -0.009620523147564,    -0.016798745614950,     0.014081780385617 ]
    - [    -0.016798745229180,    -0.021499030002057,     0.019914644636444 ]
    - [     0.014081780530368,     0.019914645000424,    -0.002127720041479 ]
  - # (1, 55)
    - [     0.004145208152235,     0.000116289375773,     0.000201418887789 ]
    - [     0.000116289589454,     0.004227437102426,    -0.000142424806123 ]
    - [     0.000201419018000,    -0.000142424626710,     0.004062979020963 ]
  - # (1, 56)
    - [    -0.009620523046652,     0.020594552049906,    -0.007507250272015 ]
    - [     0.020594552588445,    -0.024217135543507,     0.018345345738041 ]
    - [    -0.007507250232088,     0.018345345889230,     0.000590385657800 ]
  - # (1, 57)
    - [    -0.009620523124654,     0.020594552114597,     0.007507250041192 ]
    - [     0.020594552698660,    -0.024217135631388,    -0.018345345843875 ]
    - [     0.007507250163886,    -0.018345345301064,     0.000590385954764 ]
  - # (1, 58)
    - [     0.004145208097767,     0.000116289289129,    -0.000201419054665 ]
    - [     0.000116289532169,     0.004227437010317,     0.000142424599845 ]
    - [    -0.000201418903364,     0.000142424796474,     0.004062978994157 ]
  - # (1, 59)
    - [    -0.009620522914513,    -0.016798745448998,    -0.014081780297585 ]