3
Lattice="3.924294233322143 0.0 2.262078285217285 1.3062348263498078 3.698492278916608 2.2605292797088623 0.0 0.0 4.526086330413818" Properties=species:S:1:pos:R:3:forces:R:3 structure_index=0 total_energy=-9.717062950134277 stress="0.03167976811528206 -0.008509818464517593 -0.006222472060471773 -0.008509715087711811 0.021345604211091995 -0.008703219704329967 -0.0062223803251981735 -0.008703396655619144 -0.0017256475985050201" pbc="T T T"
Li       1.53520054       3.04940697       2.13651610       0.00130016       0.00118183       0.00222650
Ga       1.53856320       0.27697806       2.14107823      -0.00257107      -0.00223812      -0.00624530
Sn       2.84623970       1.20130551       4.40214909       0.00127093       0.00105628       0.00401880
20
Lattice="4.452421753498096 4.940926797244646e-05 0.002085009882869525 0.0004996777012277747 8.675177205017649 -1.4319177773347556 -0.004973388802551982 -0.6218818757657857 9.730241744353373" Properties=species:S:1:pos:R:3:forces:R:3 structure_index=1 total_energy=-57.28306579589844 stress="-0.013051834888756275 -8.49201296659885e-06 -0.0004667628963943571 -8.561931281292345e-06 -0.015375444665551186 0.0015598427271470428 -0.00046689127339050174 0.0015598475001752377 -0.0017935549840331078" pbc="T T T"
Li       1.99128866       1.15486953       3.75286000      -0.00014551      -0.02548502      -0.04919637
Li       1.98898124       1.79110030       7.46178676       0.00034778       0.00119408       0.01241805
Li       4.21639858       1.50314696       5.58171015       0.00007020       0.00562688      -0.00416429
Li       4.21465605      -0.45399608       7.98325945       0.00031235      -0.01069898       0.00292784
Li       1.99021766       6.06914951       6.83313632      -0.00058741       0.00007565      -0.01321603
Li       4.21803391       0.75659895       1.81015541       0.00020178      -0.02460803       0.00776925
Li       4.21614137       3.98259591       7.12348048      -0.00018772       0.00477238      -0.01165447
Li       4.21699860       5.72532481       4.86865412       0.00004895      -0.00243419       0.01620940
Li       1.99181956       5.46925510       3.02410404      -0.00026026       0.00937583      -0.03815944
Li       4.21805138       3.30520532       3.38045050      -0.00026934       0.00665936       0.01521006
Li       4.21956173       2.70868554      -0.23666697      -0.00031321      -0.00323831      -0.00548054
Li       1.99188330       7.33566082       0.71369918       0.00039916      -0.01387170      -0.02615111
Li       4.21873898       5.22698559       1.08605417       0.00008773       0.02606479       0.00704151
Ga       1.99219929       3.00682826       1.56007440       0.00026053       0.01297720       0.00991501
Ga       4.21955061       7.00958480      -1.11684399       0.00018879      -0.00282430      -0.01253483
Sn       1.99037477       7.95186004       4.56969667       0.00024127       0.00176045       0.00379886
Sn       1.99358560       4.83246532      -0.61894327      -0.00014876      -0.00121783       0.02435887
Sn       1.99093476       3.61947668       5.22038568      -0.00026356      -0.00404846      -0.04271483
Sn       4.21765631       7.64236228       2.60569242      -0.00004220       0.00490779       0.04877069
Sn       1.99264681       0.59186369       0.07918533       0.00005937       0.01501239       0.05485240
10
Lattice="3.1051234343211904 0.00017538743513652574 0.00041977798661607527 -0.0007994043127265157 7.719659197795397 0.0009558593502272317 -0.0005669355846895813 -0.0005959481455782553 7.720583294938699" Properties=species:S:1:pos:R:3:forces:R:3 structure_index=2 total_energy=-29.99508285522461 stress="0.029141131788492203 -0.0008252835250459611 0.0009621442877687514 -0.0008254203130491078 -0.022220134735107422 0.0005805569235235453 0.0009621460922062397 0.0005804924294352531 -0.021810898557305336" pbc="T T T"
Li       0.26993093       7.59997917       3.36352202       0.00037887      -0.02160999       0.02180484
Li       0.27039980       2.64815261       0.59403336       0.00068646       0.01907082      -0.01892852
Li       0.27043917       6.51321130       7.21723177      -0.00051736       0.01620663       0.02734296
Li       0.27082312       3.74283109       4.45035265      -0.00026389      -0.02190409      -0.01486792
Ga       1.82344588       2.18441289       2.90112294      -0.00022115      -0.02771125      -0.02878631
Ga       1.82352728       0.34183404       1.05958391       0.00012670       0.02743910       0.02431727
Ga       1.82291188       6.04526884       4.91919222      -0.00001559      -0.02661853       0.02415474
Ga       1.82291388       4.20305738       6.76055119       0.00000677       0.02781888      -0.02729832
Sn       1.82320919       1.26528607       5.83966082       0.00003689       0.00244348      -0.00201931
Sn       1.82330331       5.12236443       1.97996466      -0.00021771       0.00486493      -0.00571943
10
Lattice="4.545751988524131 0.003407733998134067 -3.8409292853874774e-05 -2.2743534607746456 3.9353825575244423 0.0010139651749967562 -0.0017231912411708762 -0.0022114620058604467 13.609695052662744" Properties=species:S:1:pos:R:3:forces:R:3 structure_index=3 total_energy=-33.12400436401367 stress="0.021942097693681717 0.00043758467654697597 0.0002243958879262209 0.0004376508295536041 0.02253713272511959 0.00016128875722642988 0.00022452791745308787 0.0001614238426554948 0.018482038751244545" pbc="T T T"
Li       1.28806139       1.91884529       6.48108601       0.00175580       0.00037589      -0.04238637
Li       1.29268176       1.91581907      10.02566687      -0.00056384       0.00049340       0.01556081
Li       1.29156526       1.91613395      13.58393763      -0.00064161       0.00050100       0.00382398
Ga      -0.98146787       3.22673670      11.27429124       0.00037899       0.00008544      -0.01780232
Ga       3.56329507       0.60757304       7.62625973      -0.00014888      -0.00014551       0.03165007
Sn       3.56399613       0.60987142       4.85146365      -0.00003595      -0.00088059       0.01257110
Sn       3.56596143       0.60904923       1.47807517      -0.00010620       0.00000916      -0.00689264
Sn       3.56505082       0.60532001      12.09780477       0.00008599      -0.00001271      -0.02648421
Sn      -0.98285853       3.22847457       8.44794020      -0.00047535      -0.00025958      -0.00221123
Sn      -0.98126503       3.23091763       3.15304578      -0.00024894      -0.00016647       0.03217083
6
Lattice="4.335215075925851 0.0044822368294935855 1.3122385005725077 1.9652371342862407 3.8645240219808623 1.3119670296893857 0.11798641028384074 0.07492414194267351 7.416230668578552" Properties=species:S:1:pos:R:3:forces:R:3 structure_index=4 total_energy=-18.008621215820312 stress="0.040796320885419846 0.0011219971347600222 -0.00826653279364109 0.001121877576224506 0.03945716843008995 -0.005009960383176804 -0.008266179822385311 -0.005009946413338184 0.061617009341716766" pbc="T T T"
Li       1.59949658       1.86418218       2.01893637       0.01261956       0.00773626      -0.04047161
Li       3.50342943       0.37528874       3.55382020      -0.00223866      -0.00119082       0.00549807
Ga       0.75903309       1.34770507       4.80009143      -0.00307687      -0.00153327       0.00880193
Ga       4.37020185       0.91075971       8.49061062      -0.00076604      -0.00095665       0.00429051
Ga       3.90977086       3.28313075       2.19822203      -0.00445929      -0.00297502       0.01587594
Sn       3.09309239       2.78096623       4.90172453      -0.00207869      -0.00108052       0.00600516
4
Lattice="4.201698976812632 -0.00016811904269850087 0.005270072781144117 0.00037154760620297786 4.201355316193798 0.0021293604398136563 -0.0013515693803238123 -0.0005416669450511 4.255713888556042" Properties=species:S:1:pos:R:3:forces:R:3 structure_index=5 total_energy=-11.990503311157227 stress="-0.10465742647647858 0.0002606922935228795 0.0029181363061070442 0.0002607246860861778 -0.10589998215436935 0.001178717240691185 0.002918139798566699 0.0011787377297878265 0.03685692697763443" pbc="T T T"
Li       3.44526833       2.87924717       0.07843084       0.00032968       0.00010216      -0.00067867
Li       1.34472260       0.77879851       0.07460223      -0.00002088      -0.00004147      -0.00054149
Ga       1.34390096       2.87924405       2.20319450       0.00053979      -0.00012167       0.00023161
Sn       3.44522710       0.77837767       2.20446362      -0.00084858       0.00006098       0.00098855
3
Lattice="3.917303800582886 0.0 2.2579965591430664 1.3052934536693066 3.696062350235329 2.25656795501709 0.0 0.0 4.522365093231201" Properties=species:S:1:pos:R:3:forces:R:3 structure_index=6 total_energy=-9.717016220092773 stress="-0.09285253286361694 -0.0017077455995604396 -0.007854603230953217 -0.001707542221993208 -0.07338950783014297 -0.00952159333974123 -0.007854873314499855 -0.00952182151377201 -0.09818753600120544" pbc="T T T"
Li       2.19308753       2.06595571       3.80519325      -0.00057186      -0.00061364       0.00015681
Ga       0.88673538       1.14103600       1.54618830       0.00063227      -0.00085746      -0.00639540
Sn       3.49835072       0.21623876       6.06503683      -0.00006043       0.00147107       0.00623859
12
Lattice="5.547628539206352 0.0022546799660262285 -2.0603021123096057 -0.7528042004661872 5.381598935490081 -2.020735195144955 -0.02524291991208932 0.029530114869295538 8.421651353530224" Properties=species:S:1:pos:R:3:forces:R:3 structure_index=7 total_energy=-36.305938720703125 stress="-0.018141059204936028 -0.0009219989296980202 -0.00474147405475378 -0.000922017905395478 -0.02607172541320324 -0.003019220195710659 -0.004741576034575701 -0.00301919667981565 -0.03092266619205475" pbc="T T T"
Li       2.30022984       3.50278149       4.80826167      -0.00354793      -0.03584343      -0.01034911
Li       5.05385165       0.40275629      -0.52098932      -0.00055683      -0.00076406      -0.00206029
Li      -0.11493549       0.93399262       6.80013911      -0.01015295       0.01730884      -0.02906611
Li       1.12580155       5.26608642       1.65358827       0.01153411      -0.01987761       0.03263611
Li       4.25510718       2.72898672       1.57992789       0.00321508       0.03739709       0.00827228
Li       2.28063666       0.40174418       0.50852386      -0.00103770      -0.00125001      -0.00146529
Ga       1.90583603       3.09422159      -0.49576759       0.00107219       0.00087911       0.00042544
Ga       4.68037902       3.09531961      -1.52543063      -0.00128762       0.00090966       0.00030056
Sn       2.83596947       0.99951385       6.24542408      -0.00095162      -0.01762180      -0.00239463
Sn       1.34317019       2.39679740       2.23710484       0.00579612      -0.01292105       0.01537411
Sn       3.72019351       5.23276375       0.14178287       0.00080793       0.02105275       0.00224014
Sn      -0.33047238       3.80429127       6.22378746      -0.00489077       0.01073051      -0.01391322
4
Lattice="4.291867405039643 -3.5267467927865556e-05 -0.0005073684543017243 0.0003246704011553651 4.2917608866603905 -0.00031860676797280387 9.372980417279111e-05 5.8927977666416466e-05 4.34256466446982" Properties=species:S:1:pos:R:3:forces:R:3 structure_index=8 total_energy=-12.532927513122559 stress="0.0019330246141180396 0.0004383201594464481 -0.0009962121257558465 0.00043835415272042155 0.0016596787609159946 -0.0006256130873225629 -0.0009961358737200499 -0.0006255949847400188 -0.00019490961858537048" pbc="T T T"
Li       2.45005548       3.97371623       1.63733021       0.00004517      -0.00009564       0.00002093
Ga       2.44983316       1.82782304       3.80895665       0.00024594      -0.00001665      -0.00035764
Ga       0.30419848       3.97366567       3.80875968      -0.00009482      -0.00001257       0.00011646
Sn       0.30400027       1.82772246       1.63768412      -0.00019629       0.00012486       0.00022024
5
Lattice="4.639807043376834 -0.0006417358895792564 0.0023625788517922584 -2.321048817729389 4.018122685716842 -0.0026737385310009595 -0.005450090055510402 0.003170895566176958 5.583908689866777" Properties=species:S:1:pos:R:3:forces:R:3 structure_index=9 total_energy=-15.762066841125488 stress="-0.06991326063871384 -0.0021609182003885508 0.0004380532482173294 -0.0021608537063002586 -0.07308106869459152 -0.000538269872777164 0.00043804029701277614 -0.0005383053212426603 -0.023697078227996826" pbc="T T T"
Li       0.45874226       2.93167622       0.06433201      -0.00022092      -0.00012519       0.00280461
Li       2.77538573       1.59482703       4.03141852      -0.00064333      -0.00030104       0.04422207
Ga       2.77652505       1.59322362       1.24477415       0.00012410       0.00010343       0.02808351
Sn       0.45520628       2.93418361       2.81364819       0.00063254      -0.00030730      -0.04010988
Sn       0.45490605       0.25586542       4.92854347       0.00010761       0.00063009      -0.03500030
4
Lattice="4.150020738286356 9.202166359528517e-05 2.395423295526362 1.381313489349093 3.912769733477832 2.3952542736465445 0.0001230317848629194 6.588753970168515e-05 4.792532409341666" Properties=species:S:1:pos:R:3:forces:R:3 structure_index=10 total_energy=-11.84421443939209 stress="-0.010518886148929596 0.0005650047678500414 -0.0014994299272075295 0.0005649049417115748 -0.018355142325162888 -0.000732458895072341 -0.0014989870833232999 -0.0007322228630073369 -0.020148515701293945" pbc="T T T"
Li       1.25021468       2.54247279       4.91330758      -0.00116493      -0.00013282      -0.00003402
Li       2.63205292       3.52034644       7.30918932       0.00013228       0.00020144      -0.00105806
Ga       4.01598221       1.56446302       4.91311926       0.00105596      -0.00075757      -0.00149843
Sn       2.63327126       0.58579777       2.51617957      -0.00002329       0.00068897       0.00259050
18
Lattice="4.703568673983644 -0.00027104584028720037 -0.9094818360933984 -0.15690768631755436 5.9865734823808285 -0.8124412050248704 -0.03959534527050221 0.1185922486721906 12.415497066757707" Properties=species:S:1:pos:R:3:forces:R:3 structure_index=11 total_energy=-54.10765075683594 stress="-0.015992145985364914 -0.0003094983985647559 0.0002574612444732338 -0.0003095341962762177 -0.01610226184129715 -0.0013651929330080748 0.0002573401143308729 -0.0013652833877131343 -0.014937237836420536" pbc="T T T"
Li       1.37956163       4.05665243       8.34420510       0.00418776      -0.01749129       0.02001889
Li       0.86700330       5.27920194       5.68875571       0.00035212       0.02636294       0.00278708
Li       2.42153315       4.62206463       1.11454183       0.00106885       0.03073950       0.00558620
Li       2.99703174       3.61939650       4.08394345      -0.00355227      -0.01168653      -0.01638870
Li       4.12621578       1.20969992       9.92968722      -0.00376073       0.01473791      -0.01981248
Li       0.41760617       1.76120243       3.36194565       0.00066856      -0.04847872       0.00344030
Li       1.92481999       2.82585647      11.16182353      -0.00227994       0.00550885      -0.01201631
Li       3.06056873       0.52963992       4.41549457      -0.00297586      -0.00897741      -0.01552723
Li       4.54387835       5.93499831      -0.52915665       0.00097184       0.01938361       0.00406286
Ga       3.50332847       5.44704883       6.70921064       0.00456699      -0.04195953       0.01970270
Ga       3.57972111       2.54147872       7.09749746      -0.00062702       0.00173390      -0.00172909
Ga      -0.06453890       3.03487024       0.87172287       0.00294159      -0.00099062       0.01430278
Ga       1.84040718       5.84740022      10.72715799       0.00059015       0.01188770       0.00087865
Sn       4.08208331       4.22158137       9.70094622       0.00119219       0.01019055       0.00870729
Sn       2.46775813       1.58913572       1.34771719      -0.00153919       0.01344848      -0.00477148
Sn       0.35906739       4.79671118       3.06569068       0.00444771      -0.02867538       0.01910754
Sn       0.92259217       2.32779818       5.97094206      -0.00337517       0.02475365      -0.01569605
Sn       1.46870915       1.00103050       8.80203206      -0.00287760      -0.00048763      -0.01265293
9
Lattice="4.125607488967399 0.004579625480906823 1.1910727544352517 1.9100633900791895 6.690297395628611 1.0886247422611668 0.17436644093934292 -0.20824410935405427 7.133493317779721" Properties=species:S:1:pos:R:3:forces:R:3 structure_index=12 total_energy=-29.412799835205078 stress="0.001937913242727518 0.0003946112119592726 0.008656431920826435 0.0003945902572013438 0.011781527660787106 -0.004427005536854267 0.008656520396471024 -0.004427002277225256 -0.025697242468595505" pbc="T T T"
Li       2.84314776       5.44828753       7.50704038       0.00033003      -0.00078024      -0.00047925
Li       3.52572863       3.27119249       5.15287173      -0.00303566      -0.01190383       0.01372718
Li       4.20334221       1.13991525       2.82465279       0.00288202       0.01478632      -0.01194113
Ga       4.08393582       5.64530683       3.22038179       0.00570546      -0.03967918      -0.02591548
Ga       5.55204362       5.46245344       5.85728705      -0.00417697       0.03906721       0.02094840
Sn       1.52673825       0.94875233       4.34321374       0.00047556       0.03218794       0.00463215
Sn       2.92750528       0.91101787       7.23782438       0.00243672      -0.00613867      -0.00747351
Sn       2.07657955       3.46751042       2.44509819      -0.00092524      -0.03510791      -0.00368553
Sn       4.97618323       3.29308084       7.87468198      -0.00369190       0.00756837       0.01018718
15
Lattice="6.567333622488017 0.03541990868598805 0.0008137721848527854 -0.04179091989969623 6.567007367405625 -0.0005505098936023447 -0.0007959011236123013 0.0016964542157425562 8.353421490129206" Properties=species:S:1:pos:R:3:forces:R:3 structure_index=13 total_energy=-51.6215705871582 stress="0.01736048236489296 -0.002620341954752803 -7.64830328989774e-05 -0.0026202816516160965 0.016520407050848007 0.00017515731451567262 -7.649691542610526e-05 0.0001751782256178558 -0.004693516995757818" pbc="T T T"
Li       3.27853825       4.16382168       2.76286758      -0.00020453       0.00022862       0.00011484
Li       0.01352539       0.86616527       2.76315529       0.00069728      -0.00040016      -0.00014185
Li       0.01502430       0.86621390       6.94071147      -0.00030943      -0.00131670      -0.00070621
Li       3.27695293       4.16625575       6.94053984       0.00038680       0.00018042      -0.00047795
Ga       3.29854935       0.88229812       6.94068244       0.00052080      -0.00041287      -0.00056365
Ga      -0.00499098       4.14785920       2.76252117      -0.00014188      -0.00038345       0.00029446
Sn       1.58468319       2.57462591       0.52565661       0.02745933      -0.02647171       0.02688785
Sn       1.58463151       2.57559747       4.99976866       0.02702217      -0.02627447      -0.02594379
Sn       1.56308242       5.73563348       5.00071456       0.02710830       0.02713979      -0.02624815
Sn       3.29943394       0.88090484       2.76438204      -0.00060626      -0.00009342      -0.00119113
Sn       4.99264627       2.59496046       0.52513477      -0.02710275      -0.02795190       0.02661291
Sn       4.97151656       5.75441220       4.99970832      -0.02731256       0.02745173      -0.02516977
Sn       4.97298864       5.75275991       0.52669802      -0.02816726       0.02795850       0.02556694
Sn       1.56379299       5.73398011       0.52586268       0.02743613       0.02789259       0.02599925
Sn       4.99171494       2.59565778       5.00014375      -0.02678613      -0.02754697      -0.02503374
12
Lattice="4.195110565746795 0.002294203333192543 0.0012152681886799677 -0.006162878815233079 5.843095247610514 -0.007021109828227549 -0.0014944789595982156 -0.004172298958252127 8.965071170872138" Properties=species:S:1:pos:R:3:forces:R:3 structure_index=14 total_energy=-34.57932662963867 stress="-0.023710522800683975 -0.0011847082059830427 0.00032847249531187117 -0.0011845796834677458 -0.025494839996099472 0.00021999630553182214 0.0003285855345893651 0.00022003977210260928 -0.03253000229597092" pbc="T T T"
Li       1.18871362       2.26510631       7.53574643       0.00014187      -0.03368578      -0.01113286
Li       3.28908437       0.81763144       0.10130704      -0.00003708      -0.00665571       0.04580088
Li       3.28643869       3.78884806       2.95193823      -0.00007301      -0.01216057      -0.00192419
Li       1.18625249       5.19373321       7.43219729      -0.00006814       0.01041169      -0.00474312
Li       1.18975235       2.32729212       4.58342112      -0.00027956       0.00837270       0.04519998
Li       3.28827896       0.87248091       3.05062778       0.00039417       0.03489038      -0.00790827
Ga       3.28510459       3.65104597       6.00580207       0.00060613      -0.02995430       0.02719887
Ga       1.18649085       5.33749999       1.52200985       0.00048226       0.02496010       0.02367922
Ga       3.28767876       0.92800809       6.08405793       0.00047301      -0.00171842      -0.04620626
Ga       1.19011830       2.20764224       1.60306467       0.00007986       0.00703719      -0.05003887
Sn       3.28719218       3.73472934       0.10670154      -0.00087826       0.00508180      -0.01088757
Sn       1.18706049       5.25502255       4.58260782      -0.00084124      -0.00657908      -0.00903780
12
Lattice="6.550552376286686 0.011397328462588781 -1.4528601343669572 -0.5984463668717752 5.893419432762261 -2.661463715390946 0.0623777604315043 0.032259166111922824 7.990300707272005" Properties=species:S:1:pos:R:3:forces:R:3 structure_index=15 total_energy=-43.42052459716797 stress="-0.014675919897854328 0.0016687873285263777 0.0023508197627961636 0.0016687968745827675 -0.005072683561593294 0.003277471289038658 0.002350844908505678 0.003277496201917529 0.000738492701202631" pbc="T T T"
Li       0.94783996       1.81719025       6.18088250      -0.00181127       0.00166574       0.00070417
Li       0.64488071       4.76664931       4.85626271      -0.00107082      -0.00050560      -0.00038249
Ga       4.21898602       1.82508843       5.45709187       0.00085117       0.00105831       0.00020041
Sn       1.62859025       5.36859633       1.94662442      -0.01635085       0.01239634      -0.01307685
Sn       3.92101697       4.77372181       4.12855980       0.00163675      -0.00231443      -0.00023490
Sn       5.03776308       5.33460451       1.09843647       0.02573906       0.02680438       0.01358497
Sn       5.32657185       2.34159286       2.44582826       0.03706337      -0.00156235       0.02953748
Sn      -0.39377815       4.13068370      -0.22846580       0.01394936      -0.01290723       0.01247109
Sn       3.03547277       1.26717988       0.47532326      -0.02924886       0.00680243      -0.02597101
Sn      -0.10454947       1.23421328       1.07865863       0.01283279       0.01931016      -0.00068646
Sn       1.92938840       2.37514412       3.30070171      -0.01404489      -0.02023503      -0.00120538
Sn       2.74966218       4.18115788      -0.83299771      -0.02954582      -0.03051273      -0.01494103
18
Lattice="5.385841013289748 0.0032680305519827736 -2.004660818128684 -1.3905844283960094 6.851921948070015 -3.721997714151656 0.07431937351605031 0.01414760711109275 8.42575928545999" Properties=species:S:1:pos:R:3:forces:R:3 structure_index=16 total_energy=-51.05242919921875 stress="-0.003978306893259287 0.0009201406501233578 0.0015661517390981317 0.0009200575295835733 -0.0013808779185637832 3.82246907975059e-05 0.0015660810749977827 3.826673128060065e-05 -0.001998297870159149" pbc="T T T"
Li       2.14948008       6.41896992       0.91776732      -0.00566442      -0.01545109       0.01288336
Li       3.55630520       3.78411343       4.62153100      -0.00420744       0.00712950       0.00756601
Li       1.77785211       1.66578182       3.99732484       0.00133928      -0.00701078       0.00403488
Li       0.34377140       6.23461805      -3.94677567       0.00268745      -0.00029384      -0.00686862
Li       4.42939169       3.96358856      -1.22091491       0.00291365       0.00635905      -0.00246620
Li       3.04076647       6.23505128      -4.94949877      -0.00715654       0.00195565      -0.00473190
Li       0.83656209       3.78113648       5.63416068       0.00780927       0.00924886       0.00119177
Li       1.73918305       3.96232044      -0.22047482      -0.00397907       0.00652951       0.00172359
Li       4.95350706       1.67328371       0.21627375       0.00216680      -0.00062831      -0.01187134
Li       2.28738140       1.67210572       1.20818495      -0.00993639      -0.00046520      -0.00618431
Li      -0.52651439       6.41820998       1.91437461       0.01289190      -0.01683350       0.00393521
Ga       2.62077947       6.20858868      -1.95376452       0.00365340      -0.00203116      -0.00671573
Ga      -0.06068430       1.63762335      -0.93826514      -0.00405701       0.00570175       0.00588124
Ga       4.46711730       1.68270365       2.98632824      -0.00201827       0.00956873      -0.00416249
Ga       3.98965349       4.02792839       1.71398323       0.00288486      -0.00750259       0.00307537
Sn       1.28068649       4.10397770       2.67181908      -0.00226103       0.02084992      -0.00579675
Sn       2.70285308       1.70077879      -1.74367663       0.00194745      -0.01629122      -0.01132779
Sn      -0.12372628       6.05619396      -1.09828492       0.00098610      -0.00083523       0.01983365
10
Lattice="4.385763063513435 -0.004131507622589669 0.0019553261099437267 -2.1879885055551056 3.800689360905738 0.0026534634392057347 0.003133792970644074 -0.016334364737782592 12.262740673765697" Properties=species:S:1:pos:R:3:forces:R:3 structure_index=17 total_energy=-30.177833557128906 stress="0.024047231301665306 0.0012310257880017161 0.000427586113801226 0.0012311897007748485 0.025270018726587296 0.0006062393658794463 0.00042750174179673195 0.0006062526954337955 0.02318650856614113" pbc="T T T"
Li      -0.54956613       2.37577420       0.52634914      -0.00065475      -0.00061960      -0.01141473
Li      -0.54842742       2.36801004       6.88997416       0.00041796      -0.00176890       0.00076770
Ga       1.64332713       1.09874784       5.59230672       0.00120278       0.00084934       0.04869044
Ga       1.64683669       3.63197702       4.94368576      -0.00064031      -0.00004976       0.01742636
Ga       1.64824710       3.62409601      11.51612424       0.00003375       0.00048062       0.03851300
Ga       1.64737861       3.62858750       8.87710296      -0.00101665       0.00003333       0.02599800
Ga       1.64359429       1.09713822       8.18172819      -0.00025260       0.00099445      -0.04768831
Ga       1.64471129       1.09272623      10.82428006       0.00038296      -0.00040408      -0.03193293
Ga       1.64313980       3.63826382       1.84960683      -0.00092410       0.00050232      -0.04690327
Sn       1.63886830       1.10503684       2.76192296       0.00145096      -0.00001772       0.00654380
12
Lattice="4.403453452739582 0.00047968135281849754 6.0058412308479486e-05 -0.0005583844335135565 4.4246410003067265 -0.001489038150031462 -7.71578416688592e-06 0.0019466150039420614 12.276077990794816" Properties=species:S:1:pos:R:3:forces:R:3 structure_index=18 total_energy=-36.87135314941406 stress="0.015501676127314568 -0.00013689538172911853 1.2432373296178412e-05 -0.00013690863852389157 0.025835629552602768 -0.0003312503395136446 1.2334740858932491e-05 -0.0003313710622023791 0.01522159855812788" pbc="T T T"
Li       0.80409929       1.12109399       7.01832305       0.00017623       0.00060283      -0.00904541
Li       0.80423271       3.33431403       9.19145668      -0.00013130       0.00028321      -0.00386062
Li       3.00611900       3.33603378       2.71973146      -0.00030395      -0.00122086      -0.01018771
Li       3.00552348       1.12278976       0.74841866       0.00043613      -0.00036723       0.01645778
Li       0.80445619       1.12154043       2.85177288      -0.00026141       0.00030504      -0.01891117
Li       3.00563308       3.33638889      11.19438267      -0.00004980      -0.00080971       0.01803160
Ga       0.80426878       1.12221286      11.18658238      -0.00014002       0.00101756       0.00844684
Ga       3.00582528       3.33513287       7.21288896       0.00003140      -0.00070845      -0.01694652
Sn       0.80444289       3.33364000       5.03300576      -0.00077363       0.00135445      -0.01454865
Sn       0.80383460       3.33371315       0.71460074       0.00025397       0.00040453       0.01619565
Sn       3.00578295       1.12274482       4.83949379       0.00084720      -0.00102046       0.00138169
Sn       3.00613178       1.12284970       9.27825151      -0.00008485       0.00015908       0.01298651
8
Lattice="4.443359211227995 -0.008584571357066943 0.00034276768487037683 0.002772827865656383 4.471855863930447 0.0002863103204737577 -0.0009490844350672675 -0.0026461541767307454 8.583604472281749" Properties=species:S:1:pos:R:3:forces:R:3 structure_index=19 total_energy=-25.98444175720215 stress="-0.009869622066617012 -0.01442278828471899 -0.0002527488104533404 -0.01442281436175108 -0.003882872173562646 -0.0018225597450509667 -0.00025267244200222194 -0.0018224507803097367 -0.00011378846102161333" pbc="T T T"
Li       0.98789495       1.50689398       6.00517397       0.00013684       0.00024908       0.01708333
Li       0.98933804       1.51011147       1.90155719      -0.00051642      -0.00054321      -0.01642092
Ga       0.98961281       3.74442425       3.95393682      -0.00024162      -0.00096675       0.00031754