# Thermal properties / unit cell (natom)

unit:
  temperature:   K
  free_energy:   kJ/mol
  entropy:       J/K/mol
  heat_capacity: J/K/mol

natom: 9    
cutoff_frequency: 0.00000
num_modes: 188325
num_integrated_modes: 184231

zero_point_energy:      23.3457688

thermal_properties:
- temperature:         0.0000000
  free_energy:        23.3457688
  entropy:             0.0000000
  heat_capacity:       0.0000000
  energy:             23.3457688

- temperature:        10.0000000
  free_energy:        23.3378530
  entropy:             2.7539374
  heat_capacity:       6.7920109
  energy:             23.3653923

- temperature:        20.0000000
  free_energy:        23.2635263
  entropy:            13.1960056
  heat_capacity:      26.5878094
  energy:             23.5274464

- temperature:        30.0000000
  free_energy:        23.0595427
  entropy:            28.0388194
  heat_capacity:      47.8868606
  energy:             23.9007073

- temperature:        40.0000000
  free_energy:        22.6973052
  entropy:            44.5647148
  heat_capacity:      67.6521021
  energy:             24.4798937

- temperature:        50.0000000
  free_energy:        22.1665305
  entropy:            61.6247091
  heat_capacity:      85.6287604
  energy:             25.2477660

- temperature:        60.0000000
  free_energy:        21.4647903
  entropy:            78.6983407
  heat_capacity:     101.8689732
  energy:             26.1866908

- temperature:        70.0000000
  free_energy:        20.5934365
  entropy:            95.5134645
  heat_capacity:     116.3792620
  energy:             27.2793790

- temperature:        80.0000000
  free_energy:        19.5559320
  entropy:           111.9072410
  heat_capacity:     129.1625321
  energy:             28.5085113

- temperature:        90.0000000
  free_energy:        18.3570388
  entropy:           127.7782706
  heat_capacity:     140.2841497
  energy:             29.8570832

- temperature:       100.0000000
  free_energy:        17.0023085
  entropy:           143.0677875
  heat_capacity:     149.8748994
  energy:             31.3090872

- temperature:       110.0000000
  free_energy:        15.4977152
  entropy:           157.7484122
  heat_capacity:     158.1037717
  energy:             32.8500405

- temperature:       120.0000000
  free_energy:        13.8493877
  entropy:           171.8152912
  heat_capacity:     165.1503553
  energy:             34.4672227

- temperature:       130.0000000
  free_energy:        12.0634213
  entropy:           185.2789255
  heat_capacity:     171.1865255
  energy:             36.1496816

- temperature:       140.0000000
  free_energy:        10.1457529
  entropy:           198.1596473
  heat_capacity:     176.3671026
  energy:             37.8881035

- temperature:       150.0000000
  free_energy:         8.1020846
  entropy:           210.4835842
  heat_capacity:     180.8265758
  energy:             39.6746222

- temperature:       160.0000000
  free_energy:         5.9378403
  entropy:           222.2798385
  heat_capacity:     184.6792510
  energy:             41.5026144

- temperature:       170.0000000
  free_energy:         3.6581461
  entropy:           233.5785877
  heat_capacity:     188.0210413
  energy:             43.3665061

- temperature:       180.0000000
  free_energy:         1.2678267
  entropy:           244.4098527
  heat_capacity:     190.9318615
  energy:             45.2616002

- temperature:       190.0000000
  free_energy:        -1.2285898
  entropy:           254.8027315
  heat_capacity:     193.4780814
  energy:             47.1839292

- temperature:       200.0000000
  free_energy:        -3.8268593
  entropy:           264.7849518
  heat_capacity:     195.7147818
  energy:             49.1301311

- temperature:       210.0000000
  free_energy:        -6.5230072
  entropy:           274.3826367
  heat_capacity:     197.6877201
  energy:             51.0973465

- temperature:       220.0000000
  free_energy:        -9.3133118
  entropy:           283.6202081
  heat_capacity:     199.4349884
  energy:             53.0831340

- temperature:       230.0000000
  free_energy:       -12.1942869
  entropy:           292.5203804
  heat_capacity:     200.9883891
  energy:             55.0854006

- temperature:       240.0000000
  free_energy:       -15.1626651
  entropy:           301.1042079
  heat_capacity:     202.3745621
  energy:             57.1023448

- temperature:       250.0000000
  free_energy:       -18.2153817
  entropy:           309.3911645
  heat_capacity:     203.6159046
  energy:             59.1324095

- temperature:       260.0000000
  free_energy:       -21.3495590
  entropy:           317.3992400
  heat_capacity:     204.7313187
  energy:             61.1742434

- temperature:       270.0000000
  free_energy:       -24.5624924
  entropy:           325.1450447
  heat_capacity:     205.7368191
  energy:             63.2266697

- temperature:       280.0000000
  free_energy:       -27.8516369
  entropy:           332.6439140
  heat_capacity:     206.6460274
  energy:             65.2886591

- temperature:       290.0000000
  free_energy:       -31.2145949
  entropy:           339.9100107
  heat_capacity:     207.4705748
  energy:             67.3593082

- temperature:       300.0000000
  free_energy:       -34.6491049
  entropy:           346.9564222
  heat_capacity:     208.2204304
  energy:             69.4378217

- temperature:       310.0000000
  free_energy:       -38.1530315
  entropy:           353.7952518
  heat_capacity:     208.9041711
  energy:             71.5234966

- temperature:       320.0000000
  free_energy:       -41.7243554
  entropy:           360.4377032
  heat_capacity:     209.5292028
  energy:             73.6157096

- temperature:       330.0000000
  free_energy:       -45.3611656
  entropy:           366.8941577
  heat_capacity:     210.1019427
  energy:             75.7139064

- temperature:       340.0000000
  free_energy:       -49.0616508
  entropy:           373.1742458
  heat_capacity:     210.6279702
  energy:             77.8175928

- temperature:       350.0000000
  free_energy:       -52.8240925
  entropy:           379.2869113
  heat_capacity:     211.1121527
  energy:             79.9263264

- temperature:       360.0000000
  free_energy:       -56.6468587
  entropy:           385.2404704
  heat_capacity:     211.5587496
  energy:             82.0397106

- temperature:       370.0000000
  free_energy:       -60.5283974
  entropy:           391.0426651
  heat_capacity:     211.9714997
  energy:             84.1573887

- temperature:       380.0000000
  free_energy:       -64.4672316
  entropy:           396.7007116
  heat_capacity:     212.3536948
  energy:             86.2790388

- temperature:       390.0000000
  free_energy:       -68.4619537
  entropy:           402.2213438
  heat_capacity:     212.7082414
  energy:             88.4043704

- temperature:       400.0000000
  free_energy:       -72.5112214
  entropy:           407.6108538
  heat_capacity:     213.0377125
  energy:             90.5331201

- temperature:       410.0000000
  free_energy:       -76.6137533
  entropy:           412.8751270
  heat_capacity:     213.3443921
  energy:             92.6650487

- temperature:       420.0000000
  free_energy:       -80.7683249
  entropy:           418.0196754
  heat_capacity:     213.6303131
  energy:             94.7999388

- temperature:       430.0000000
  free_energy:       -84.9737650
  entropy:           423.0496672
  heat_capacity:     213.8972889
  energy:             96.9375919

- temperature:       440.0000000
  free_energy:       -89.2289526
  entropy:           427.9699532
  heat_capacity:     214.1469411
  energy:             99.0778268

- temperature:       450.0000000
  free_energy:       -93.5328136
  entropy:           432.7850921
  heat_capacity:     214.3807231
  energy:            101.2204778

- temperature:       460.0000000
  free_energy:       -97.8843183
  entropy:           437.4993718
  heat_capacity:     214.5999406
  energy:            103.3653927

- temperature:       470.0000000
  free_energy:      -102.2824784
  entropy:           442.1168305
  heat_capacity:     214.8057685
  energy:            105.5124320

- temperature:       480.0000000
  free_energy:      -106.7263449
  entropy:           446.6412748
  heat_capacity:     214.9992670
  energy:            107.6614670

- temperature:       490.0000000
  free_energy:      -111.2150058
  entropy:           451.0762964
  heat_capacity:     215.1813940
  energy:            109.8123794

- temperature:       500.0000000
  free_energy:      -115.7475840
  entropy:           455.4252879
  heat_capacity:     215.3530168
  energy:            111.9650599

- temperature:       510.0000000
  free_energy:      -120.3232355
  entropy:           459.6914566
  heat_capacity:     215.5149223
  energy:            114.1194074

- temperature:       520.0000000
  free_energy:      -124.9411472
  entropy:           463.8778377
  heat_capacity:     215.6678255
  energy:            116.2753284

- temperature:       530.0000000
  free_energy:      -129.6005359
  entropy:           467.9873056
  heat_capacity:     215.8123774
  energy:            118.4327361

- temperature:       540.0000000
  free_energy:      -134.3006461
  entropy:           472.0225854
  heat_capacity:     215.9491714
  energy:            120.5915500

- temperature:       550.0000000
  free_energy:      -139.0407489
  entropy:           475.9862625
  heat_capacity:     216.0787496
  energy:            122.7516955

- temperature:       560.0000000
  free_energy:      -143.8201408
  entropy:           479.8807919
  heat_capacity:     216.2016078
  energy:            124.9131026

- temperature:       570.0000000
  free_energy:      -148.6381421
  entropy:           483.7085067
  heat_capacity:     216.3182001
  energy:            127.0757067

- temperature:       580.0000000
  free_energy:      -153.4940957
  entropy:           487.4716255
  heat_capacity:     216.4289432
  energy:            129.2394472

- temperature:       590.0000000
  free_energy:      -158.3873663
  entropy:           491.1722605
  heat_capacity:     216.5342198
  energy:            131.4042674

- temperature:       600.0000000
  free_energy:      -163.3173393
  entropy:           494.8124230
  heat_capacity:     216.6343822
  energy:            133.5701145

- temperature:       610.0000000
  free_energy:      -168.2834196
  entropy:           498.3940306
  heat_capacity:     216.7297546
  energy:            135.7369390

- temperature:       620.0000000
  free_energy:      -173.2850308
  entropy:           501.9189121
  heat_capacity:     216.8206362
  energy:            137.9046946

- temperature:       630.0000000
  free_energy:      -178.3216146
  entropy:           505.3888132
  heat_capacity:     216.9073034
  energy:            140.0733377

- temperature:       640.0000000
  free_energy:      -183.3926294
  entropy:           508.8054014
  heat_capacity:     216.9900116
  energy:            142.2428275

- temperature:       650.0000000
  free_energy:      -188.4975502
  entropy:           512.1702704
  heat_capacity:     217.0689972
  energy:            144.4131256

- temperature:       660.0000000
  free_energy:      -193.6358675
  entropy:           515.4849444
  heat_capacity:     217.1444795
  energy:            146.5841958

- temperature:       670.0000000
  free_energy:      -198.8070867
  entropy:           518.7508818
  heat_capacity:     217.2166617
  energy:            148.7560041

- temperature:       680.0000000
  free_energy:      -204.0107274
  entropy:           521.9694794
  heat_capacity:     217.2857327
  energy:            150.9285186

- temperature:       690.0000000
  free_energy:      -209.2463229
  entropy:           525.1420753
  heat_capacity:     217.3518682
  energy:            153.1017090

- temperature:       700.0000000
  free_energy:      -214.5134198
  entropy:           528.2699522
  heat_capacity:     217.4152314
  energy:            155.2755468

- temperature:       710.0000000
  free_energy:      -219.8115770
  entropy:           531.3543407
  heat_capacity:     217.4759747
  energy:            157.4500049

- temperature:       720.0000000
  free_energy:      -225.1403656
  entropy:           534.3964216
  heat_capacity:     217.5342400
  energy:            159.6250580

- temperature:       730.0000000
  free_energy:      -230.4993682
  entropy:           537.3973289
  heat_capacity:     217.5901598
  energy:            161.8006819

- temperature:       740.0000000
  free_energy:      -235.8881786
  entropy:           540.3581518
  heat_capacity:     217.6438579
  energy:            163.9768538

- temperature:       750.0000000
  free_energy:      -241.3064011
  entropy:           543.2799375
  heat_capacity:     217.6954502
  energy:            166.1535520

- temperature:       760.0000000
  free_energy:      -246.7536505
  entropy:           546.1636930
  heat_capacity:     217.7450449
  energy:            168.3307561

- temperature:       770.0000000
  free_energy:      -252.2295514
  entropy:           549.0103871
  heat_capacity:     217.7927436
  energy:            170.5084466

- temperature:       780.0000000
  free_energy:      -257.7337379
  entropy:           551.8209524
  heat_capacity:     217.8386414
  energy:            172.6866050

- temperature:       790.0000000
  free_energy:      -263.2658531
  entropy:           554.5962871
  heat_capacity:     217.8828275
  energy:            174.8652137

- temperature:       800.0000000
  free_energy:      -268.8255491
  entropy:           557.3372565
  heat_capacity:     217.9253858
  energy:            177.0442561

- temperature:       810.0000000
  free_energy:      -274.4124864
  entropy:           560.0446947
  heat_capacity:     217.9663951
  energy:            179.2237163

- temperature:       820.0000000
  free_energy:      -280.0263339
  entropy:           562.7194061
  heat_capacity:     218.0059294
  energy:            181.4035791

- temperature:       830.0000000
  free_energy:      -285.6667680
  entropy:           565.3621665
  heat_capacity:     218.0440584
  energy:            183.5838302

- temperature:       840.0000000
  free_energy:      -291.3334732
  entropy:           567.9737250
  heat_capacity:     218.0808478
  energy:            185.7644558

- temperature:       850.0000000
  free_energy:      -297.0261409
  entropy:           570.5548045
  heat_capacity:     218.1163595
  energy:            187.9454429

- temperature:       860.0000000
  free_energy:      -302.7444700
  entropy:           573.1061034
  heat_capacity:     218.1506517
  energy:            190.1267789

- temperature:       870.0000000
  free_energy:      -308.4881660
  entropy:           575.6282966
  heat_capacity:     218.1837797
  energy:            192.3084520

- temperature:       880.0000000
  free_energy:      -314.2569411
  entropy:           578.1220363
  heat_capacity:     218.2157952
  energy:            194.4904508

- temperature:       890.0000000
  free_energy:      -320.0505140
  entropy:           580.5879532
  heat_capacity:     218.2467476
  energy:            196.6727644

- temperature:       900.0000000
  free_energy:      -325.8686095
  entropy:           583.0266576
  heat_capacity:     218.2766833
  energy:            198.8553824

- temperature:       910.0000000
  free_energy:      -331.7109584
  entropy:           585.4387398
  heat_capacity:     218.3056461
  energy:            201.0382948

- temperature:       920.0000000
  free_energy:      -337.5772974
  entropy:           587.8247713
  heat_capacity:     218.3336778
  energy:            203.2214922

- temperature:       930.0000000
  free_energy:      -343.4673688
  entropy:           590.1853056
  heat_capacity:     218.3608177
  energy:            205.4049654

- temperature:       940.0000000
  free_energy:      -349.3809203
  entropy:           592.5208788
  heat_capacity:     218.3871031
  energy:            207.5887057

- temperature:       950.0000000
  free_energy:      -355.3177049
  entropy:           594.8320102
  heat_capacity:     218.4125696
  energy:            209.7727047

- temperature:       960.0000000
  free_energy:      -361.2774808
  entropy:           597.1192034
  heat_capacity:     218.4372506
  energy:            211.9569545

- temperature:       970.0000000
  free_energy:      -367.2600108
  entropy:           599.3829465
  heat_capacity:     218.4611782
  energy:            214.1414472

- temperature:       980.0000000
  free_energy:      -373.2650631
  entropy:           601.6237130
  heat_capacity:     218.4843826
  energy:            216.3261756

- temperature:       990.0000000
  free_energy:      -379.2924100
  entropy:           603.8419622
  heat_capacity:     218.5068926
  energy:            218.5111326

- temperature:      1000.0000000
  free_energy:      -385.3418288
  entropy:           606.0381400
  heat_capacity:     218.5287355
  energy:            220.6963113
