phonopy:
  version: "2.37.1"
  frequency_unit_conversion_factor: 15.633302
  symmetry_tolerance: 1.00000e-05

space_group:
  type: "P6_3/mmc"
  number: 194
  Hall_symbol: "-P 6c 2c"

primitive_matrix:
- [  1.000000000000000,  0.000000000000000, -0.000000000000000 ]
- [  0.000000000000000,  1.000000000000000,  0.000000000000000 ]
- [  0.000000000000000,  0.000000000000000,  1.000000000000000 ]

supercell_matrix:
- [   3,   0,   0 ]
- [   0,   3,   0 ]
- [   0,   0,   2 ]

primitive_cell:
  lattice:
  - [     4.762479828586206,     0.000000000000000,     0.000000000000000 ] # a
  - [    -2.381239857564263,     4.124428399228753,     0.000000000000000 ] # b
  - [     0.000000120521740,     0.000000387624935,     5.790093729456394 ] # c
  points:
  - symbol: Li # 1
    coordinates: [  0.999999998930601,  0.999999998529938,  0.999999999402246 ]
    mass: 6.940000
  - symbol: Li # 2
    coordinates: [  0.999999998056541,  0.999999997301888,  0.500000000434225 ]
    mass: 6.940000
  - symbol: Li # 3
    coordinates: [  0.333333331679799,  0.666666662100858,  0.749999991020308 ]
    mass: 6.940000
  - symbol: Li # 4
    coordinates: [  0.666666672440583,  0.333333344312321,  0.250000010895573 ]
    mass: 6.940000
  - symbol: Sn # 5
    coordinates: [  0.333333330783065,  0.666666658856184,  0.250000013112609 ]
    mass: 118.710000
  - symbol: Sn # 6
    coordinates: [  0.666666668122457,  0.333333338755836,  0.749999985012012 ]
    mass: 118.710000
  reciprocal_lattice: # without 2pi
  - [     0.209974642621607,     0.121228917001415,    -0.000000012486475 ] # a*
  - [     0.000000000000000,     0.242457839778961,    -0.000000016231638 ] # b*
  - [     0.000000000000000,     0.000000000000000,     0.172708775837707 ] # c*

unit_cell:
  lattice:
  - [     4.762479828586206,     0.000000000000000,     0.000000000000000 ] # a
  - [    -2.381239857564263,     4.124428399228753,     0.000000000000000 ] # b
  - [     0.000000120521740,     0.000000387624935,     5.790093729456394 ] # c
  points:
  - symbol: Li # 1
    coordinates: [  0.999999998930601,  0.999999998529938,  0.999999999402246 ]
    mass: 6.940000
    reduced_to: 1
  - symbol: Li # 2
    coordinates: [  0.999999998056541,  0.999999997301888,  0.500000000434225 ]
    mass: 6.940000
    reduced_to: 2
  - symbol: Li # 3
    coordinates: [  0.333333331679799,  0.666666662100858,  0.749999991020308 ]
    mass: 6.940000
    reduced_to: 3
  - symbol: Li # 4
    coordinates: [  0.666666672440583,  0.333333344312321,  0.250000010895573 ]
    mass: 6.940000
    reduced_to: 4
  - symbol: Sn # 5
    coordinates: [  0.333333330783065,  0.666666658856185,  0.250000013112609 ]
    mass: 118.710000
    reduced_to: 5
  - symbol: Sn # 6
    coordinates: [  0.666666668122457,  0.333333338755836,  0.749999985012012 ]
    mass: 118.710000
    reduced_to: 6

supercell:
  lattice:
  - [    14.287439485758618,     0.000000000000000,     0.000000000000000 ] # a
  - [    -7.143719572692790,    12.373285197686259,     0.000000000000000 ] # b
  - [     0.000000241043479,     0.000000775249870,    11.580187458912787 ] # c
  points:
  - symbol: Li # 1
    coordinates: [  0.333333332976867,  0.333333332843313,  0.499999999701123 ]
    mass: 6.940000
    reduced_to: 1
  - symbol: Li # 2
    coordinates: [  0.666666666310200,  0.333333332843313,  0.499999999701123 ]
    mass: 6.940000
    reduced_to: 1
  - symbol: Li # 3
    coordinates: [  0.999999999643534,  0.333333332843313,  0.499999999701123 ]
    mass: 6.940000
    reduced_to: 1
  - symbol: Li # 4
    coordinates: [  0.333333332976867,  0.666666666176646,  0.499999999701123 ]
    mass: 6.940000
    reduced_to: 1
  - symbol: Li # 5
    coordinates: [  0.666666666310200,  0.666666666176646,  0.499999999701123 ]
    mass: 6.940000
    reduced_to: 1
  - symbol: Li # 6
    coordinates: [  0.999999999643534,  0.666666666176646,  0.499999999701123 ]
    mass: 6.940000
    reduced_to: 1
  - symbol: Li # 7
    coordinates: [  0.333333332976867,  0.999999999509979,  0.499999999701123 ]
    mass: 6.940000
    reduced_to: 1
  - symbol: Li # 8
    coordinates: [  0.666666666310200,  0.999999999509979,  0.499999999701123 ]
    mass: 6.940000
    reduced_to: 1
  - symbol: Li # 9
    coordinates: [  0.999999999643534,  0.999999999509979,  0.499999999701123 ]
    mass: 6.940000
    reduced_to: 1
  - symbol: Li # 10
    coordinates: [  0.333333332976867,  0.333333332843313,  0.999999999701123 ]
    mass: 6.940000
    reduced_to: 1
  - symbol: Li # 11
    coordinates: [  0.666666666310200,  0.333333332843313,  0.999999999701123 ]
    mass: 6.940000
    reduced_to: 1
  - symbol: Li # 12
    coordinates: [  0.999999999643534,  0.333333332843313,  0.999999999701123 ]
    mass: 6.940000
    reduced_to: 1
  - symbol: Li # 13
    coordinates: [  0.333333332976867,  0.666666666176646,  0.999999999701123 ]
    mass: 6.940000
    reduced_to: 1
  - symbol: Li # 14
    coordinates: [  0.666666666310200,  0.666666666176646,  0.999999999701123 ]
    mass: 6.940000
    reduced_to: 1
  - symbol: Li # 15
    coordinates: [  0.999999999643534,  0.666666666176646,  0.999999999701123 ]
    mass: 6.940000
    reduced_to: 1
  - symbol: Li # 16
    coordinates: [  0.333333332976867,  0.999999999509979,  0.999999999701123 ]
    mass: 6.940000
    reduced_to: 1
  - symbol: Li # 17
    coordinates: [  0.666666666310200,  0.999999999509979,  0.999999999701123 ]
    mass: 6.940000
    reduced_to: 1
  - symbol: Li # 18
    coordinates: [  0.999999999643534,  0.999999999509979,  0.999999999701123 ]
    mass: 6.940000
    reduced_to: 1
  - symbol: Li # 19
    coordinates: [  0.333333332685514,  0.333333332433963,  0.250000000217113 ]
    mass: 6.940000
    reduced_to: 19
  - symbol: Li # 20
    coordinates: [  0.666666666018847,  0.333333332433963,  0.250000000217113 ]
    mass: 6.940000
    reduced_to: 19
  - symbol: Li # 21
    coordinates: [  0.999999999352180,  0.333333332433963,  0.250000000217113 ]
    mass: 6.940000
    reduced_to: 19
  - symbol: Li # 22
    coordinates: [  0.333333332685514,  0.666666665767296,  0.250000000217113 ]
    mass: 6.940000
    reduced_to: 19
  - symbol: Li # 23
    coordinates: [  0.666666666018847,  0.666666665767296,  0.250000000217113 ]
    mass: 6.940000
    reduced_to: 19
  - symbol: Li # 24
    coordinates: [  0.999999999352180,  0.666666665767296,  0.250000000217113 ]
    mass: 6.940000
    reduced_to: 19
  - symbol: Li # 25
    coordinates: [  0.333333332685514,  0.999999999100629,  0.250000000217113 ]
    mass: 6.940000
    reduced_to: 19
  - symbol: Li # 26
    coordinates: [  0.666666666018847,  0.999999999100629,  0.250000000217113 ]
    mass: 6.940000
    reduced_to: 19
  - symbol: Li # 27
    coordinates: [  0.999999999352180,  0.999999999100629,  0.250000000217113 ]
    mass: 6.940000
    reduced_to: 19
  - symbol: Li # 28
    coordinates: [  0.333333332685514,  0.333333332433963,  0.750000000217113 ]
    mass: 6.940000
    reduced_to: 19
  - symbol: Li # 29
    coordinates: [  0.666666666018847,  0.333333332433963,  0.750000000217113 ]
    mass: 6.940000
    reduced_to: 19
  - symbol: Li # 30
    coordinates: [  0.999999999352180,  0.333333332433963,  0.750000000217113 ]
    mass: 6.940000
    reduced_to: 19
  - symbol: Li # 31
    coordinates: [  0.333333332685514,  0.666666665767296,  0.750000000217113 ]
    mass: 6.940000
    reduced_to: 19
  - symbol: Li # 32
    coordinates: [  0.666666666018847,  0.666666665767296,  0.750000000217113 ]
    mass: 6.940000
    reduced_to: 19
  - symbol: Li # 33
    coordinates: [  0.999999999352180,  0.666666665767296,  0.750000000217113 ]
    mass: 6.940000
    reduced_to: 19
  - symbol: Li # 34
    coordinates: [  0.333333332685514,  0.999999999100629,  0.750000000217113 ]
    mass: 6.940000
    reduced_to: 19
  - symbol: Li # 35
    coordinates: [  0.666666666018847,  0.999999999100629,  0.750000000217113 ]
    mass: 6.940000
    reduced_to: 19
  - symbol: Li # 36
    coordinates: [  0.999999999352180,  0.999999999100629,  0.750000000217113 ]
    mass: 6.940000
    reduced_to: 19
  - symbol: Li # 37
    coordinates: [  0.111111110559933,  0.222222220700286,  0.374999995510154 ]
    mass: 6.940000
    reduced_to: 37
  - symbol: Li # 38
    coordinates: [  0.444444443893266,  0.222222220700286,  0.374999995510154 ]
    mass: 6.940000
    reduced_to: 37
  - symbol: Li # 39
    coordinates: [  0.777777777226600,  0.222222220700286,  0.374999995510154 ]
    mass: 6.940000
    reduced_to: 37
  - symbol: Li # 40
    coordinates: [  0.111111110559933,  0.555555554033619,  0.374999995510154 ]
    mass: 6.940000
    reduced_to: 37
  - symbol: Li # 41
    coordinates: [  0.444444443893266,  0.555555554033619,  0.374999995510154 ]
    mass: 6.940000
    reduced_to: 37
  - symbol: Li # 42
    coordinates: [  0.777777777226600,  0.555555554033619,  0.374999995510154 ]
    mass: 6.940000
    reduced_to: 37
  - symbol: Li # 43
    coordinates: [  0.111111110559933,  0.888888887366953,  0.374999995510154 ]
    mass: 6.940000
    reduced_to: 37
  - symbol: Li # 44
    coordinates: [  0.444444443893266,  0.888888887366953,  0.374999995510154 ]
    mass: 6.940000
    reduced_to: 37
  - symbol: Li # 45
    coordinates: [  0.777777777226600,  0.888888887366953,  0.374999995510154 ]
    mass: 6.940000
    reduced_to: 37
  - symbol: Li # 46
    coordinates: [  0.111111110559933,  0.222222220700286,  0.874999995510154 ]
    mass: 6.940000
    reduced_to: 37
  - symbol: Li # 47
    coordinates: [  0.444444443893266,  0.222222220700286,  0.874999995510154 ]
    mass: 6.940000
    reduced_to: 37
  - symbol: Li # 48
    coordinates: [  0.777777777226600,  0.222222220700286,  0.874999995510154 ]
    mass: 6.940000
    reduced_to: 37
  - symbol: Li # 49
    coordinates: [  0.111111110559933,  0.555555554033619,  0.874999995510154 ]
    mass: 6.940000
    reduced_to: 37
  - symbol: Li # 50
    coordinates: [  0.444444443893266,  0.555555554033619,  0.874999995510154 ]
    mass: 6.940000
    reduced_to: 37
  - symbol: Li # 51
    coordinates: [  0.777777777226600,  0.555555554033619,  0.874999995510154 ]
    mass: 6.940000
    reduced_to: 37
  - symbol: Li # 52
    coordinates: [  0.111111110559933,  0.888888887366953,  0.874999995510154 ]
    mass: 6.940000
    reduced_to: 37
  - symbol: Li # 53
    coordinates: [  0.444444443893266,  0.888888887366953,  0.874999995510154 ]
    mass: 6.940000
    reduced_to: 37
  - symbol: Li # 54
    coordinates: [  0.777777777226600,  0.888888887366953,  0.874999995510154 ]
    mass: 6.940000
    reduced_to: 37
  - symbol: Li # 55
    coordinates: [  0.222222224146861,  0.111111114770774,  0.125000005447786 ]
    mass: 6.940000
    reduced_to: 55
  - symbol: Li # 56
    coordinates: [  0.555555557480194,  0.111111114770774,  0.125000005447786 ]
    mass: 6.940000
    reduced_to: 55
  - symbol: Li # 57
    coordinates: [  0.888888890813528,  0.111111114770774,  0.125000005447786 ]
    mass: 6.940000
    reduced_to: 55
  - symbol: Li # 58
    coordinates: [  0.222222224146861,  0.444444448104107,  0.125000005447786 ]
    mass: 6.940000
    reduced_to: 55
  - symbol: Li # 59
    coordinates: [  0.555555557480194,  0.444444448104107,  0.125000005447786 ]
    mass: 6.940000
    reduced_to: 55
  - symbol: Li # 60
    coordinates: [  0.888888890813528,  0.444444448104107,  0.125000005447786 ]
    mass: 6.940000
    reduced_to: 55
  - symbol: Li # 61
    coordinates: [  0.222222224146861,  0.777777781437440,  0.125000005447786 ]
    mass: 6.940000
    reduced_to: 55
  - symbol: Li # 62
    coordinates: [  0.555555557480194,  0.777777781437440,  0.125000005447786 ]
    mass: 6.940000
    reduced_to: 55
  - symbol: Li # 63
    coordinates: [  0.888888890813528,  0.777777781437440,  0.125000005447786 ]
    mass: 6.940000
    reduced_to: 55
  - symbol: Li # 64
    coordinates: [  0.222222224146861,  0.111111114770774,  0.625000005447786 ]
    mass: 6.940000
    reduced_to: 55
  - symbol: Li # 65
    coordinates: [  0.555555557480194,  0.111111114770774,  0.625000005447786 ]
    mass: 6.940000
    reduced_to: 55
  - symbol: Li # 66
    coordinates: [  0.888888890813528,  0.111111114770774,  0.625000005447786 ]
    mass: 6.940000
    reduced_to: 55
  - symbol: Li # 67
    coordinates: [  0.222222224146861,  0.444444448104107,  0.625000005447786 ]
    mass: 6.940000
    reduced_to: 55
  - symbol: Li # 68
    coordinates: [  0.555555557480194,  0.444444448104107,  0.625000005447786 ]
    mass: 6.940000
    reduced_to: 55
  - symbol: Li # 69
    coordinates: [  0.888888890813528,  0.444444448104107,  0.625000005447786 ]
    mass: 6.940000
    reduced_to: 55
  - symbol: Li # 70
    coordinates: [  0.222222224146861,  0.777777781437440,  0.625000005447786 ]
    mass: 6.940000
    reduced_to: 55
  - symbol: Li # 71
    coordinates: [  0.555555557480194,  0.777777781437440,  0.625000005447786 ]
    mass: 6.940000
    reduced_to: 55
  - symbol: Li # 72
    coordinates: [  0.888888890813528,  0.777777781437440,  0.625000005447786 ]
    mass: 6.940000
    reduced_to: 55
  - symbol: Sn # 73
    coordinates: [  0.111111110261022,  0.222222219618728,  0.125000006556305 ]
    mass: 118.710000
    reduced_to: 73
  - symbol: Sn # 74
    coordinates: [  0.444444443594355,  0.222222219618728,  0.125000006556305 ]
    mass: 118.710000
    reduced_to: 73
  - symbol: Sn # 75
    coordinates: [  0.777777776927688,  0.222222219618728,  0.125000006556305 ]
    mass: 118.710000
    reduced_to: 73
  - symbol: Sn # 76
    coordinates: [  0.111111110261022,  0.555555552952061,  0.125000006556305 ]
    mass: 118.710000
    reduced_to: 73
  - symbol: Sn # 77
    coordinates: [  0.444444443594355,  0.555555552952061,  0.125000006556305 ]
    mass: 118.710000
    reduced_to: 73
  - symbol: Sn # 78
    coordinates: [  0.777777776927688,  0.555555552952061,  0.125000006556305 ]
    mass: 118.710000
    reduced_to: 73
  - symbol: Sn # 79
    coordinates: [  0.111111110261022,  0.888888886285395,  0.125000006556305 ]
    mass: 118.710000
    reduced_to: 73
  - symbol: Sn # 80
    coordinates: [  0.444444443594355,  0.888888886285395,  0.125000006556305 ]
    mass: 118.710000
    reduced_to: 73
  - symbol: Sn # 81
    coordinates: [  0.777777776927688,  0.888888886285395,  0.125000006556305 ]
    mass: 118.710000
    reduced_to: 73
  - symbol: Sn # 82
    coordinates: [  0.111111110261022,  0.222222219618728,  0.625000006556304 ]
    mass: 118.710000
    reduced_to: 73
  - symbol: Sn # 83
    coordinates: [  0.444444443594355,  0.222222219618728,  0.625000006556304 ]
    mass: 118.710000
    reduced_to: 73
  - symbol: Sn # 84
    coordinates: [  0.777777776927688,  0.222222219618728,  0.625000006556304 ]
    mass: 118.710000
    reduced_to: 73
  - symbol: Sn # 85
    coordinates: [  0.111111110261022,  0.555555552952061,  0.625000006556304 ]
    mass: 118.710000
    reduced_to: 73
  - symbol: Sn # 86
    coordinates: [  0.444444443594355,  0.555555552952061,  0.625000006556304 ]
    mass: 118.710000
    reduced_to: 73
  - symbol: Sn # 87
    coordinates: [  0.777777776927688,  0.555555552952061,  0.625000006556304 ]
    mass: 118.710000
    reduced_to: 73
  - symbol: Sn # 88
    coordinates: [  0.111111110261022,  0.888888886285395,  0.625000006556304 ]
    mass: 118.710000
    reduced_to: 73
  - symbol: Sn # 89
    coordinates: [  0.444444443594355,  0.888888886285395,  0.625000006556304 ]
    mass: 118.710000
    reduced_to: 73
  - symbol: Sn # 90
    coordinates: [  0.777777776927688,  0.888888886285395,  0.625000006556304 ]
    mass: 118.710000
    reduced_to: 73
  - symbol: Sn # 91
    coordinates: [  0.222222222707486,  0.111111112918612,  0.374999992506006 ]
    mass: 118.710000
    reduced_to: 91
  - symbol: Sn # 92
    coordinates: [  0.555555556040819,  0.111111112918612,  0.374999992506006 ]
    mass: 118.710000
    reduced_to: 91
  - symbol: Sn # 93
    coordinates: [  0.888888889374152,  0.111111112918612,  0.374999992506006 ]
    mass: 118.710000
    reduced_to: 91
  - symbol: Sn # 94
    coordinates: [  0.222222222707486,  0.444444446251945,  0.374999992506006 ]
    mass: 118.710000
    reduced_to: 91
  - symbol: Sn # 95
    coordinates: [  0.555555556040819,  0.444444446251945,  0.374999992506006 ]
    mass: 118.710000
    reduced_to: 91
  - symbol: Sn # 96
    coordinates: [  0.888888889374152,  0.444444446251945,  0.374999992506006 ]
    mass: 118.710000
    reduced_to: 91
  - symbol: Sn # 97
    coordinates: [  0.222222222707486,  0.777777779585278,  0.374999992506006 ]
    mass: 118.710000
    reduced_to: 91
  - symbol: Sn # 98
    coordinates: [  0.555555556040819,  0.777777779585278,  0.374999992506006 ]
    mass: 118.710000
    reduced_to: 91
  - symbol: Sn # 99
    coordinates: [  0.888888889374152,  0.777777779585278,  0.374999992506006 ]
    mass: 118.710000
    reduced_to: 91
  - symbol: Sn # 100
    coordinates: [  0.222222222707486,  0.111111112918612,  0.874999992506006 ]
    mass: 118.710000
    reduced_to: 91
  - symbol: Sn # 101
    coordinates: [  0.555555556040819,  0.111111112918612,  0.874999992506006 ]
    mass: 118.710000
    reduced_to: 91
  - symbol: Sn # 102
    coordinates: [  0.888888889374152,  0.111111112918612,  0.874999992506006 ]
    mass: 118.710000
    reduced_to: 91
  - symbol: Sn # 103
    coordinates: [  0.222222222707486,  0.444444446251945,  0.874999992506006 ]
    mass: 118.710000
    reduced_to: 91
  - symbol: Sn # 104
    coordinates: [  0.555555556040819,  0.444444446251945,  0.874999992506006 ]
    mass: 118.710000
    reduced_to: 91
  - symbol: Sn # 105
    coordinates: [  0.888888889374152,  0.444444446251945,  0.874999992506006 ]
    mass: 118.710000
    reduced_to: 91
  - symbol: Sn # 106
    coordinates: [  0.222222222707486,  0.777777779585278,  0.874999992506006 ]
    mass: 118.710000
    reduced_to: 91
  - symbol: Sn # 107
    coordinates: [  0.555555556040819,  0.777777779585278,  0.874999992506006 ]
    mass: 118.710000
    reduced_to: 91
  - symbol: Sn # 108
    coordinates: [  0.888888889374152,  0.777777779585278,  0.874999992506006 ]
    mass: 118.710000
    reduced_to: 91

displacements:
- atom:    1
  displacement:
    [   0.0077686807155618,  0.0000000004215359,  0.0062966340166519 ]
  forces:
  - [  -0.0132982665672898,  0.0000008977949619, -0.0129277417436242 ]
  - [   0.0000559677137062, -0.0000189840793610, -0.0000664256513119 ]
  - [   0.0000675431219861, -0.0000184737145901, -0.0000657255295664 ]
  - [   0.0000239788787439, -0.0000265020644292, -0.0000474173575640 ]
  - [  -0.0000081293983385,  0.0000381974969059, -0.0000852160155773 ]
  - [   0.0000042171450332, -0.0000005604233593, -0.0000068973749876 ]
  - [   0.0000222484814003, -0.0000187805853784, -0.0000469880615128 ]
  - [   0.0000042719766498,  0.0000006892951205, -0.0000072717666626 ]
  - [  -0.0000079050660133,  0.0000427094055340, -0.0000850326323416 ]
  - [  -0.0000422353623435, -0.0000003658933565, -0.0002126153558493 ]
  - [  -0.0000020867446437,  0.0000027472851798,  0.0000015515834093 ]
  - [  -0.0000013876706362,  0.0000028924550861,  0.0000013653188944 ]
  - [  -0.0000025229528546, -0.0000002291053534, -0.0000017457641661 ]
  - [   0.0000032540410757, -0.0000031604431570,  0.0000066803768277 ]
  - [   0.0000003894674592,  0.0000004429602996, -0.0000043557956815 ]
  - [  -0.0000026055840863, -0.0000005555339158, -0.0000030063092709 ]
  - [  -0.0000008509960026, -0.0000002521555871, -0.0000050663948059 ]
  - [   0.0000027087517083, -0.0000039236620069,  0.0000057183206081 ]
  - [  -0.0002812402090058, -0.0000007946509868,  0.0032548848539591 ]
  - [  -0.0000299188541248,  0.0000717650400475, -0.0000332985073328 ]
  - [   0.0000368462642655, -0.0001913043670356,  0.0000493512488902 ]
  - [   0.0002053193747997,  0.0002065623411909, -0.0000320868566632 ]
  - [   0.0000702525721863, -0.0002096572425216,  0.0000506881624460 ]
  - [   0.0000007394701242,  0.0000006260816008,  0.0000042072497308 ]
  - [   0.0001709697535262,  0.0000056364806369, -0.0000729709863663 ]
  - [  -0.0000002800952643,  0.0000002114102244,  0.0000054575502872 ]
  - [   0.0001018451293930,  0.0001140965614468,  0.0000927373766899 ]
  - [  -0.0002996667753905,  0.0000005260808393,  0.0033011939376593 ]
  - [   0.0000385671155527, -0.0001896317116916,  0.0000534495338798 ]
  - [  -0.0000303031411022,  0.0000732634216547, -0.0000317250378430 ]
  - [   0.0001728769275360,  0.0000035822158679, -0.0000749700702727 ]
  - [   0.0001054528402165,  0.0001117839710787,  0.0000935606658459 ]
  - [   0.0000009146751836, -0.0000012903474271,  0.0000054147094488 ]
  - [   0.0002077889512293,  0.0002120344433933, -0.0000333376228809 ]
  - [  -0.0000005016336218,  0.0000005126930773,  0.0000058412551880 ]
  - [   0.0000697582727298, -0.0002070781774819,  0.0000508278608322 ]
  - [   0.0018507881322876,  0.0012583017814904,  0.0012122982880101 ]
  - [   0.0007260205456987, -0.0006114830030128, -0.0005472579505295 ]
  - [   0.0000270442105830, -0.0000023295870051, -0.0000004579778761 ]
  - [  -0.0012195392046124,  0.0006458591669798,  0.0003533472772688 ]
  - [  -0.0003308961167932, -0.0006632152944803,  0.0003412928199396 ]
  - [  -0.0001755742123351, -0.0000389777123928, -0.0002219072775915 ]
  - [  -0.0001024138182402, -0.0006033023819327,  0.0000656249467283 ]
  - [   0.0000071818940341, -0.0000104317441583,  0.0000007878988981 ]
  - [   0.0000030491501093,  0.0000134855508804, -0.0000018107239157 ]
  - [   0.0000987403618637,  0.0000873153330758,  0.0002672271803021 ]
  - [   0.0001026513054967, -0.0000890268711373, -0.0000923351617530 ]
  - [   0.0000027627684176, -0.0000027591595426,  0.0000001561129466 ]
  - [   0.0000157918802870, -0.0000087260268629, -0.0000023196917027 ]
  - [  -0.0000522257651028,  0.0000035488046706,  0.0000902888132259 ]
  - [  -0.0000026512425393, -0.0000002984888852,  0.0000308384187520 ]
  - [  -0.0000000875443220,  0.0000131470151246,  0.0000156010501087 ]
  - [   0.0000023338943720,  0.0000024391338229,  0.0000003089662641 ]
  - [  -0.0000035017728806,  0.0000056577846408,  0.0000019459985197 ]
  - [  -0.0000528693708475,  0.0000055604414229,  0.0000906679779291 ]
  - [   0.0000167177968251, -0.0000083846052803, -0.0000008242204785 ]
  - [  -0.0000019305152819, -0.0000006667351045,  0.0000327434390783 ]
  - [   0.0001040951392497, -0.0000887770293048, -0.0000880872830749 ]
  - [   0.0000961282057688,  0.0000874168035807,  0.0002728430554271 ]
  - [   0.0000014749821275, -0.0000022713031740,  0.0000010235235095 ]
  - [   0.0000017758177364,  0.0000002497467904, -0.0000006235204637 ]
  - [   0.0000000111758709,  0.0000100066308732,  0.0000148368999362 ]
  - [  -0.0000046390523494,  0.0000024281107471,  0.0000008284114301 ]
  - [  -0.0003326493315399, -0.0006591570563614,  0.0003365422599018 ]
  - [  -0.0012233208399266,  0.0006418150151148,  0.0003530541434884 ]
  - [  -0.0001796576980269, -0.0000445659970865, -0.0002231574617326 ]
  - [   0.0007327082566917, -0.0006138646276668, -0.0005484502762556 ]
  - [   0.0018998901359737,  0.0012916889972985,  0.0012374818325043 ]
  - [   0.0000276000937447, -0.0000013157077774,  0.0000005001202226 ]
  - [   0.0000066010884439, -0.0000120711047202,  0.0000005746260285 ]
  - [  -0.0001062295123120, -0.0006027054041624,  0.0000639744102955 ]
  - [   0.0000032209791243,  0.0000132543500513, -0.0000013457611203 ]
  - [   0.0001740674779285,  0.0002190641826019,  0.0003008116036654 ]
  - [  -0.0000052545219660, -0.0001160205574706,  0.0000196024775505 ]
  - [  -0.0000681132078171, -0.0000113503774628, -0.0000096149742603 ]
  - [   0.0001875720918179, -0.0000997371971607,  0.0002487171441317 ]
  - [  -0.0002061240375042, -0.0001021418720484,  0.0001589059829712 ]
  - [   0.0000103507190943, -0.0000013466924429, -0.0000821854919195 ]
  - [   0.0000148061662912,  0.0001034867018461,  0.0000842753797770 ]
  - [   0.0000028163194656,  0.0000410480424762, -0.0000016633421183 ]
  - [  -0.0000154729932547, -0.0000280048698187, -0.0000175666064024 ]
  - [   0.0018139787716791,  0.0009974638232961, -0.0007262397557497 ]
  - [   0.0034425295889378, -0.0019495896995068,  0.0017144456505775 ]
  - [   0.0000174734741449,  0.0000136801972985,  0.0000130552798510 ]
  - [   0.0001090764999390, -0.0000774990767241, -0.0002713110297918 ]
  - [   0.0000781736889621,  0.0009004622697830,  0.0004699863493443 ]
  - [  -0.0001344345510006, -0.0000622514635324,  0.0001289956271648 ]
  - [  -0.0000248569995165,  0.0001425324007869, -0.0000735223293304 ]
  - [  -0.0000010263174772, -0.0000083111226559,  0.0000049378722906 ]
  - [   0.0000238213688135, -0.0000032307580113,  0.0000216886401176 ]
  - [   0.0000826935283840,  0.0008980365819298,  0.0004721134901047 ]
  - [   0.0001112449681386, -0.0000790524791228, -0.0002722591161728 ]
  - [  -0.0001331273233518, -0.0000621813305770,  0.0001273918896914 ]
  - [   0.0033019892871380, -0.0018551035318524,  0.0016361549496651 ]
  - [   0.0018137262668461,  0.0010045807575807, -0.0007425658404827 ]
  - [   0.0000172180589288,  0.0000150453997776,  0.0000128317624331 ]
  - [  -0.0000028531067073, -0.0000117702875286,  0.0000046454370022 ]
  - [  -0.0000238462816924,  0.0001397175947204, -0.0000723693519831 ]
  - [   0.0000228178687394, -0.0000052996911108,  0.0000216290354729 ]
  - [  -0.0002069975016639, -0.0001048929989338,  0.0001521222293377 ]
  - [   0.0001878842012957, -0.0001037402544171,  0.0002429895102978 ]
  - [   0.0000109544489533, -0.0000054289121181, -0.0000894535332918 ]
  - [  -0.0000040085287765, -0.0001184345455840,  0.0000096540898085 ]
  - [   0.0001727696508169,  0.0002187159843743,  0.0002922490239143 ]
  - [  -0.0000668263528496, -0.0000113321002573, -0.0000160560011864 ]
  - [   0.0000041082967073,  0.0000390148488805, -0.0000080838799477 ]
  - [   0.0000133495777845,  0.0001001061173156,  0.0000759549438953 ]
  - [  -0.0000169144477695, -0.0000317798694596, -0.0000255797058344 ]
- atom:   37
  displacement:
    [   0.0077686807155618,  0.0000000004215359,  0.0062966340166519 ]
  forces:
  - [   0.0020449920557439,  0.0013761557638645,  0.0010578744113445 ]
  - [   0.0000256007770076, -0.0000016000121832, -0.0000015180557966 ]
  - [   0.0005856072530150, -0.0005317814648151, -0.0003715064376593 ]
  - [  -0.0001051452709362,  0.0002716161543503,  0.0000671446323395 ]
  - [   0.0000044928165153,  0.0000119290780276, -0.0000032223761082 ]
  - [   0.0000062735052779, -0.0000124970683828,  0.0000014747492969 ]
  - [  -0.0004600290558301,  0.0002044106367975, -0.0005752071738243 ]
  - [  -0.0009345480939373, -0.0004790748935193,  0.0007128603756428 ]
  - [  -0.0003366147866473, -0.0008283035131171,  0.0003356225788593 ]
  - [   0.0002442359691486,  0.0001699073472992,  0.0000864174216986 ]
  - [   0.0000019342405722,  0.0000000193249434,  0.0000000502914190 ]
  - [  -0.0000461898744106, -0.0000034035183489,  0.0000933408737183 ]
  - [   0.0000002747401595, -0.0000154975568876,  0.0000146208330989 ]
  - [   0.0000004675239325,  0.0000011007068679, -0.0000027110800147 ]
  - [   0.0000002479064278, -0.0000012236414477,  0.0000047674402595 ]
  - [  -0.0000059103240346,  0.0000034811673686,  0.0000254437327385 ]
  - [   0.0000207066768780,  0.0000117489835247,  0.0000024735927582 ]
  - [  -0.0000523016788065, -0.0001685539027676,  0.0000898316502571 ]
  - [   0.0005813385359943,  0.0005264044739306, -0.0003666668199003 ]
  - [   0.0000268485164270,  0.0000000017462298, -0.0000008074566722 ]
  - [   0.0019950466230512, -0.0013415390858427,  0.0010313512757421 ]
  - [  -0.0001056529581547, -0.0002666224027053,  0.0000611878931522 ]
  - [   0.0000063005136326,  0.0000128159299493,  0.0000005802139640 ]
  - [   0.0000058207660913, -0.0000121749471873, -0.0000041439197958 ]
  - [  -0.0009315866045654,  0.0004759051371366,  0.0007049962878227 ]
  - [  -0.0004718308337033, -0.0002124866005033, -0.0005839541554451 ]
  - [  -0.0003302596742287,  0.0008297304739244,  0.0003400593996048 ]
  - [  -0.0000456953421235,  0.0000050275120884,  0.0000943019986153 ]
  - [   0.0000012604286894, -0.0000002497108653,  0.0000010225921869 ]
  - [   0.0002487422898412, -0.0001744948094711,  0.0000870791263878 ]
  - [   0.0000001696753316,  0.0000147745013237,  0.0000151218846440 ]
  - [  -0.0000012199161574,  0.0000003997702152,  0.0000043753534555 ]
  - [   0.0000017081620172, -0.0000020911684260, -0.0000037122517824 ]
  - [   0.0000216393345909, -0.0000110651599243,  0.0000032633543015 ]
  - [  -0.0000060593010858, -0.0000030860537663,  0.0000267699360847 ]
  - [  -0.0000537732848898,  0.0001706590410322,  0.0000904873013496 ]
  - [  -0.0231284759938717,  0.0001663170987740, -0.0124307516962290 ]
  - [  -0.0003359661204740, -0.0003163689980283, -0.0000981723424047 ]
  - [  -0.0003267740830779,  0.0003251605667174, -0.0000975707080215 ]
  - [   0.0003718279767781,  0.0000838916748762, -0.0000985311344266 ]
  - [   0.0003740395186469, -0.0000872761011124, -0.0000956614967436 ]
  - [  -0.0000154224690050,  0.0000005513429642, -0.0000075509306043 ]
  - [   0.0003728619776666,  0.0007321117445827, -0.0000994763104245 ]
  - [  -0.0000145626254380,  0.0000005648471415, -0.0000086749205366 ]
  - [   0.0003741788677871, -0.0007228478789330, -0.0000968993408605 ]
  - [  -0.0002400268276688,  0.0000010650837794, -0.0033522325102240 ]
  - [   0.0000277440994978,  0.0000120643526316,  0.0000253594480455 ]
  - [   0.0000277012586594, -0.0000102551421151,  0.0000250637531281 ]
  - [  -0.0000024108187517, -0.0000038123689592,  0.0000251689925790 ]
  - [  -0.0000006724042692,  0.0000054999254644,  0.0000248539727181 ]
  - [   0.0000012915115803,  0.0000007329508662, -0.0000026549678296 ]
  - [  -0.0000012079253793, -0.0000252365134656,  0.0000265478156507 ]
  - [   0.0000007902272046,  0.0000017797574401, -0.0000016248086467 ]
  - [  -0.0000010328367352,  0.0000298642553389,  0.0000259045045823 ]
  - [   0.0001116525672842,  0.0000043960408220, -0.0000621448270977 ]
  - [  -0.0000149210936797, -0.0000026142470233,  0.0000081788748503 ]