# Thermal properties / unit cell (natom)

unit:
  temperature:   K
  free_energy:   kJ/mol
  entropy:       J/K/mol
  heat_capacity: J/K/mol

natom: 8    
cutoff_frequency: 0.00000
num_modes: 163296
num_integrated_modes: 161894

zero_point_energy:      32.9584818

thermal_properties:
- temperature:         0.0000000
  free_energy:        32.9584818
  entropy:             0.0000000
  heat_capacity:       0.0000000
  energy:             32.9584818

- temperature:        10.0000000
  free_energy:        32.9566097
  entropy:             0.5905863
  heat_capacity:       1.5728248
  energy:             32.9625155

- temperature:        20.0000000
  free_energy:        32.9368513
  entropy:             3.9691763
  heat_capacity:      10.2685503
  energy:             33.0162348

- temperature:        30.0000000
  free_energy:        32.8671939
  entropy:            10.3146357
  heat_capacity:      21.7820039
  energy:             33.1766330

- temperature:        40.0000000
  free_energy:        32.7260215
  entropy:            18.0539552
  heat_capacity:      32.3189576
  energy:             33.4481797

- temperature:        50.0000000
  free_energy:        32.5044413
  entropy:            26.3153619
  heat_capacity:      42.0267897
  energy:             33.8202094

- temperature:        60.0000000
  free_energy:        32.1988873
  entropy:            34.8311995
  heat_capacity:      51.7266468
  energy:             34.2887593

- temperature:        70.0000000
  free_energy:        31.8071325
  entropy:            43.5529769
  heat_capacity:      61.7407267
  energy:             34.8558409

- temperature:        80.0000000
  free_energy:        31.3271981
  entropy:            52.4627983
  heat_capacity:      71.9442486
  energy:             35.5242219

- temperature:        90.0000000
  free_energy:        30.7573754
  entropy:            61.5222996
  heat_capacity:      82.0456365
  energy:             36.2943824

- temperature:       100.0000000
  free_energy:        30.0964436
  entropy:            70.6741344
  heat_capacity:      91.7666733
  energy:             37.1638571

- temperature:       110.0000000
  free_energy:        29.3437984
  entropy:            79.8543804
  heat_capacity:     100.9100135
  energy:             38.1277803

- temperature:       120.0000000
  free_energy:        28.4994644
  entropy:            89.0024197
  heat_capacity:     109.3648822
  energy:             39.1797547

- temperature:       130.0000000
  free_energy:        27.5640321
  entropy:            98.0662032
  heat_capacity:     117.0894801
  energy:             40.3126385

- temperature:       140.0000000
  free_energy:        26.5385613
  entropy:           107.0040300
  heat_capacity:     124.0893715
  energy:             41.5191255

- temperature:       150.0000000
  free_energy:        25.4244776
  entropy:           115.7843085
  heat_capacity:     130.3991615
  energy:             42.7921239

- temperature:       160.0000000
  free_energy:        24.2234767
  entropy:           124.3843658
  heat_capacity:     136.0691058
  energy:             44.1249752

- temperature:       170.0000000
  free_energy:        22.9374426
  entropy:           132.7889432
  heat_capacity:     141.1561474
  energy:             45.5115629

- temperature:       180.0000000
  free_energy:        21.5683810
  entropy:           140.9887099
  heat_capacity:     145.7183082
  energy:             46.9463488

- temperature:       190.0000000
  free_energy:        20.1183672
  entropy:           148.9789411
  heat_capacity:     149.8114157
  energy:             48.4243660

- temperature:       200.0000000
  free_energy:        18.5895050
  entropy:           156.7584105
  heat_capacity:     153.4873670
  energy:             49.9411871

- temperature:       210.0000000
  free_energy:        16.9838972
  entropy:           164.3284931
  heat_capacity:     156.7933599
  energy:             51.4928807

- temperature:       220.0000000
  free_energy:        15.3036224
  entropy:           171.6924561
  heat_capacity:     159.7717094
  energy:             53.0759627

- temperature:       230.0000000
  free_energy:        13.5507198
  entropy:           178.8549073
  heat_capacity:     162.4599968
  energy:             54.6873485

- temperature:       240.0000000
  free_energy:        11.7271776
  entropy:           185.8213717
  heat_capacity:     164.8913960
  energy:             56.3243068

- temperature:       250.0000000
  free_energy:         9.8349253
  entropy:           192.5979698
  heat_capacity:     167.0950784
  energy:             57.9844178

- temperature:       260.0000000
  free_energy:         7.8758295
  entropy:           199.1911748
  heat_capacity:     169.0966392
  energy:             59.6655350

- temperature:       270.0000000
  free_energy:         5.8516910
  entropy:           205.6076330
  heat_capacity:     170.9185127
  energy:             61.3657519

- temperature:       280.0000000
  free_energy:         3.7642437
  entropy:           211.8540298
  heat_capacity:     172.5803590
  energy:             63.0833721

- temperature:       290.0000000
  free_energy:         1.6151552
  entropy:           217.9369938
  heat_capacity:     174.0994149
  energy:             64.8168834

- temperature:       300.0000000
  free_energy:        -0.5939730
  entropy:           223.8630270
  heat_capacity:     175.4908065
  energy:             66.5649350

- temperature:       310.0000000
  free_energy:        -2.8616034
  entropy:           229.6384574
  heat_capacity:     176.7678241
  energy:             68.3263184

- temperature:       320.0000000
  free_energy:        -5.1862606
  entropy:           235.2694064
  heat_capacity:     177.9421627
  energy:             70.0999494

- temperature:       330.0000000
  free_energy:        -7.5665296
  entropy:           240.7617681
  heat_capacity:     179.0241304
  energy:             71.8848539

- temperature:       340.0000000
  free_energy:       -10.0010529
  entropy:           246.1211985
  heat_capacity:     180.0228297
  energy:             73.6801546

- temperature:       350.0000000
  free_energy:       -12.4885285
  entropy:           251.3531097
  heat_capacity:     180.9463136
  energy:             75.4850599

- temperature:       360.0000000
  free_energy:       -15.0277073
  entropy:           256.4626703
  heat_capacity:     181.8017203
  energy:             77.2988540

- temperature:       370.0000000
  free_energy:       -17.6173905
  entropy:           261.4548084
  heat_capacity:     182.5953897
  energy:             79.1208886

- temperature:       380.0000000
  free_energy:       -20.2564277
  entropy:           266.3342174
  heat_capacity:     183.3329638
  energy:             80.9505749

- temperature:       390.0000000
  free_energy:       -22.9437140
  entropy:           271.1053634
  heat_capacity:     184.0194737
  energy:             82.7873777

- temperature:       400.0000000
  free_energy:       -25.6781883
  entropy:           275.7724937
  heat_capacity:     184.6594142
  energy:             84.6308092

- temperature:       410.0000000
  free_energy:       -28.4588307
  entropy:           280.3396460
  heat_capacity:     185.2568093
  energy:             86.4804242

- temperature:       420.0000000
  free_energy:       -31.2846608
  entropy:           284.8106581
  heat_capacity:     185.8152679
  energy:             88.3358156

- temperature:       430.0000000
  free_energy:       -34.1547355
  entropy:           289.1891771
  heat_capacity:     186.3380331
  energy:             90.1966106

- temperature:       440.0000000
  free_energy:       -37.0681476
  entropy:           293.4786697
  heat_capacity:     186.8280245
  energy:             92.0624671

- temperature:       450.0000000
  free_energy:       -40.0240232
  entropy:           297.6824308
  heat_capacity:     187.2878754
  energy:             93.9330707

- temperature:       460.0000000
  free_energy:       -43.0215209
  entropy:           301.8035934
  heat_capacity:     187.7199650
  energy:             95.8081321

- temperature:       470.0000000
  free_energy:       -46.0598297
  entropy:           305.8451368
  heat_capacity:     188.1264464
  energy:             97.6873846

- temperature:       480.0000000
  free_energy:       -49.1381677
  entropy:           309.8098955
  heat_capacity:     188.5092717
  energy:             99.5705822

- temperature:       490.0000000
  free_energy:       -52.2557806
  entropy:           313.7005669
  heat_capacity:     188.8702137
  energy:            101.4574971

- temperature:       500.0000000
  free_energy:       -55.4119406
  entropy:           317.5197190
  heat_capacity:     189.2108848
  energy:            103.3479189

- temperature:       510.0000000
  free_energy:       -58.6059448
  entropy:           321.2697980
  heat_capacity:     189.5327537
  energy:            105.2416522

- temperature:       520.0000000
  free_energy:       -61.8371141
  entropy:           324.9531344
  heat_capacity:     189.8371604
  energy:            107.1385158

- temperature:       530.0000000
  free_energy:       -65.1047924
  entropy:           328.5719504
  heat_capacity:     190.1253295
  energy:            109.0383413

- temperature:       540.0000000
  free_energy:       -68.4083451
  entropy:           332.1283650
  heat_capacity:     190.3983813
  energy:            110.9409720

- temperature:       550.0000000
  free_energy:       -71.7471585
  entropy:           335.6244007
  heat_capacity:     190.6573424
  energy:            112.8462619

- temperature:       560.0000000
  free_energy:       -75.1206383
  entropy:           339.0619881
  heat_capacity:     190.9031548
  energy:            114.7540750

- temperature:       570.0000000
  free_energy:       -78.5282096
  entropy:           342.4429713
  heat_capacity:     191.1366841
  energy:            116.6642841

- temperature:       580.0000000
  free_energy:       -81.9693150
  entropy:           345.7691127
  heat_capacity:     191.3587266
  energy:            118.5767704

- temperature:       590.0000000
  free_energy:       -85.4434146
  entropy:           349.0420973
  heat_capacity:     191.5700156
  energy:            120.4914228

- temperature:       600.0000000
  free_energy:       -88.9499851
  entropy:           352.2635371
  heat_capacity:     191.7712276
  energy:            122.4081371

- temperature:       610.0000000
  free_energy:       -92.4885187
  entropy:           355.4349747
  heat_capacity:     191.9629873
  energy:            124.3268158

- temperature:       620.0000000
  free_energy:       -96.0585229
  entropy:           358.5578874
  heat_capacity:     192.1458721
  energy:            126.2473673

- temperature:       630.0000000
  free_energy:       -99.6595194
  entropy:           361.6336903
  heat_capacity:     192.3204165
  energy:            128.1697055

- temperature:       640.0000000
  free_energy:      -103.2910442
  entropy:           364.6637401
  heat_capacity:     192.4871156
  energy:            130.0937495

- temperature:       650.0000000
  free_energy:      -106.9526461
  entropy:           367.6493373
  heat_capacity:     192.6464286
  energy:            132.0194232

- temperature:       660.0000000
  free_energy:      -110.6438869
  entropy:           370.5917299
  heat_capacity:     192.7987821
  energy:            133.9466549

- temperature:       670.0000000
  free_energy:      -114.3643406
  entropy:           373.4921158
  heat_capacity:     192.9445723
  energy:            135.8753769

- temperature:       680.0000000
  free_energy:      -118.1135930
  entropy:           376.3516451
  heat_capacity:     193.0841682
  energy:            137.8055257

- temperature:       690.0000000
  free_energy:      -121.8912410
  entropy:           379.1714230
  heat_capacity:     193.2179129
  energy:            139.7370408

- temperature:       700.0000000
  free_energy:      -125.6968925
  entropy:           381.9525114
  heat_capacity:     193.3461268
  energy:            141.6698655

- temperature:       710.0000000
  free_energy:      -129.5301657
  entropy:           384.6959319
  heat_capacity:     193.4691085
  energy:            143.6039459

- temperature:       720.0000000
  free_energy:      -133.3906889
  entropy:           387.4026667
  heat_capacity:     193.5871368
  energy:            145.5392311

- temperature:       730.0000000
  free_energy:      -137.2780999
  entropy:           390.0736615
  heat_capacity:     193.7004727
  energy:            147.4756730

- temperature:       740.0000000
  free_energy:      -141.1920460
  entropy:           392.7098267
  heat_capacity:     193.8093598
  energy:            149.4132258

- temperature:       750.0000000
  free_energy:      -145.1321833
  entropy:           395.3120392
  heat_capacity:     193.9140267
  energy:            151.3518461

- temperature:       760.0000000
  free_energy:      -149.0981764
  entropy:           397.8811440
  heat_capacity:     194.0146873
  energy:            153.2914930

- temperature:       770.0000000
  free_energy:      -153.0896985
  entropy:           400.4179555
  heat_capacity:     194.1115422
  energy:            155.2321272

- temperature:       780.0000000
  free_energy:      -157.1064305
  entropy:           402.9232593
  heat_capacity:     194.2047799
  energy:            157.1737117

- temperature:       790.0000000
  free_energy:      -161.1480612
  entropy:           405.3978133
  heat_capacity:     194.2945772
  energy:            159.1162113

- temperature:       800.0000000
  free_energy:      -165.2142867
  entropy:           407.8423489
  heat_capacity:     194.3811004
  energy:            161.0595924

- temperature:       810.0000000
  free_energy:      -169.3048105
  entropy:           410.2575721
  heat_capacity:     194.4645058
  energy:            163.0038229

- temperature:       820.0000000
  free_energy:      -173.4193428
  entropy:           412.6441651
  heat_capacity:     194.5449409
  energy:            164.9488726

- temperature:       830.0000000
  free_energy:      -177.5576006
  entropy:           415.0027866
  heat_capacity:     194.6225441
  energy:            166.8947123

- temperature:       840.0000000
  free_energy:      -181.7193074
  entropy:           417.3340736
  heat_capacity:     194.6974463
  energy:            168.8413145

- temperature:       850.0000000
  free_energy:      -185.9041930
  entropy:           419.6386419
  heat_capacity:     194.7697707
  energy:            170.7886527

- temperature:       860.0000000
  free_energy:      -190.1119931
  entropy:           421.9170870
  heat_capacity:     194.8396338
  energy:            172.7367017

- temperature:       870.0000000
  free_energy:      -194.3424496
  entropy:           424.1699851
  heat_capacity:     194.9071454
  energy:            174.6854375

- temperature:       880.0000000
  free_energy:      -198.5953095
  entropy:           426.3978939
  heat_capacity:     194.9724095
  energy:            176.6348371

- temperature:       890.0000000
  free_energy:      -202.8703259
  entropy:           428.6013533
  heat_capacity:     195.0355242
  energy:            178.5848785

- temperature:       900.0000000
  free_energy:      -207.1672569
  entropy:           430.7808862
  heat_capacity:     195.0965826
  energy:            180.5355407

- temperature:       910.0000000
  free_energy:      -211.4858656
  entropy:           432.9369991
  heat_capacity:     195.1556725
  energy:            182.4868036

- temperature:       920.0000000
  free_energy:      -215.8259204
  entropy:           435.0701829
  heat_capacity:     195.2128775
  energy:            184.4386479

- temperature:       930.0000000
  free_energy:      -220.1871944
  entropy:           437.1809135
  heat_capacity:     195.2682764
  energy:            186.3910551

- temperature:       940.0000000
  free_energy:      -224.5694654
  entropy:           439.2696522
  heat_capacity:     195.3219442
  energy:            188.3440077

- temperature:       950.0000000
  free_energy:      -228.9725156
  entropy:           441.3368464
  heat_capacity:     195.3739520
  energy:            190.2974885

- temperature:       960.0000000
  free_energy:      -233.3961319
  entropy:           443.3829305
  heat_capacity:     195.4243674
  energy:            192.2514814

- temperature:       970.0000000
  free_energy:      -237.8401053
  entropy:           445.4083258
  heat_capacity:     195.4732544
  energy:            194.2059707

- temperature:       980.0000000
  free_energy:      -242.3042309
  entropy:           447.4134413
  heat_capacity:     195.5206740
  energy:            196.1609416

- temperature:       990.0000000
  free_energy:      -246.7883078
  entropy:           449.3986741
  heat_capacity:     195.5666841
  energy:            198.1163795

- temperature:      1000.0000000
  free_energy:      -251.2921393
  entropy:           451.3644101
  heat_capacity:     195.6113398
  energy:            200.0722707
