phonopy:
  version: "2.37.1"
  frequency_unit_conversion_factor: 15.633302
  symmetry_tolerance: 1.00000e-05

space_group:
  type: "Pm-3m"
  number: 221
  Hall_symbol: "-P 4 2 3"

primitive_matrix:
- [  1.000000000000000, -0.000000000000000,  0.000000000000000 ]
- [  0.000000000000000,  1.000000000000000,  0.000000000000000 ]
- [  0.000000000000000,  0.000000000000000,  1.000000000000000 ]

supercell_matrix:
- [   3,   0,   0 ]
- [   0,   3,   0 ]
- [   0,   0,   3 ]

primitive_cell:
  lattice:
  - [     3.459007781880540,     0.000000000000000,     0.000000000000000 ] # a
  - [    -0.000000042286065,     3.459007829296038,     0.000000000000000 ] # b
  - [    -0.000000069516998,    -0.000000115402365,     3.459007784777894 ] # c
  points:
  - symbol: Li # 1
    coordinates: [  0.000000003584647,  0.000000006889778,  0.000000002011578 ]
    mass: 6.940000
  - symbol: Sn # 2
    coordinates: [  0.499999996363757,  0.499999993043077,  0.499999997945537 ]
    mass: 118.710000
  reciprocal_lattice: # without 2pi
  - [     0.289100245809894,     0.000000003534225,     0.000000005810158 ] # a*
  - [     0.000000000000000,     0.289100241846956,     0.000000009645209 ] # b*
  - [     0.000000000000000,     0.000000000000000,     0.289100245567736 ] # c*

unit_cell:
  lattice:
  - [     3.459007781880539,     0.000000000000000,     0.000000000000000 ] # a
  - [    -0.000000042286065,     3.459007829296039,     0.000000000000000 ] # b
  - [    -0.000000069516998,    -0.000000115402365,     3.459007784777894 ] # c
  points:
  - symbol: Li # 1
    coordinates: [  0.000000003584647,  0.000000006889778,  0.000000002011578 ]
    mass: 6.940000
    reduced_to: 1
  - symbol: Sn # 2
    coordinates: [  0.499999996363757,  0.499999993043077,  0.499999997945537 ]
    mass: 118.710000
    reduced_to: 2

supercell:
  lattice:
  - [    10.377023345641618,     0.000000000000000,     0.000000000000000 ] # a
  - [    -0.000000126858196,    10.377023487888117,     0.000000000000000 ] # b
  - [    -0.000000208550995,    -0.000000346207094,    10.377023354333684 ] # c
  points:
  - symbol: Li # 1
    coordinates: [  0.000000001194882,  0.000000002296593,  0.000000000670526 ]
    mass: 6.940000
    reduced_to: 1
  - symbol: Li # 2
    coordinates: [  0.333333334528216,  0.000000002296593,  0.000000000670526 ]
    mass: 6.940000
    reduced_to: 1
  - symbol: Li # 3
    coordinates: [  0.666666667861549,  0.000000002296593,  0.000000000670526 ]
    mass: 6.940000
    reduced_to: 1
  - symbol: Li # 4
    coordinates: [  0.000000001194882,  0.333333335629926,  0.000000000670526 ]
    mass: 6.940000
    reduced_to: 1
  - symbol: Li # 5
    coordinates: [  0.333333334528216,  0.333333335629926,  0.000000000670526 ]
    mass: 6.940000
    reduced_to: 1
  - symbol: Li # 6
    coordinates: [  0.666666667861549,  0.333333335629926,  0.000000000670526 ]
    mass: 6.940000
    reduced_to: 1
  - symbol: Li # 7
    coordinates: [  0.000000001194882,  0.666666668963259,  0.000000000670526 ]
    mass: 6.940000
    reduced_to: 1
  - symbol: Li # 8
    coordinates: [  0.333333334528216,  0.666666668963259,  0.000000000670526 ]
    mass: 6.940000
    reduced_to: 1
  - symbol: Li # 9
    coordinates: [  0.666666667861549,  0.666666668963259,  0.000000000670526 ]
    mass: 6.940000
    reduced_to: 1
  - symbol: Li # 10
    coordinates: [  0.000000001194882,  0.000000002296593,  0.333333334003859 ]
    mass: 6.940000
    reduced_to: 1
  - symbol: Li # 11
    coordinates: [  0.333333334528216,  0.000000002296593,  0.333333334003859 ]
    mass: 6.940000
    reduced_to: 1
  - symbol: Li # 12
    coordinates: [  0.666666667861549,  0.000000002296593,  0.333333334003859 ]
    mass: 6.940000
    reduced_to: 1
  - symbol: Li # 13
    coordinates: [  0.000000001194882,  0.333333335629926,  0.333333334003859 ]
    mass: 6.940000
    reduced_to: 1
  - symbol: Li # 14
    coordinates: [  0.333333334528216,  0.333333335629926,  0.333333334003859 ]
    mass: 6.940000
    reduced_to: 1
  - symbol: Li # 15
    coordinates: [  0.666666667861549,  0.333333335629926,  0.333333334003859 ]
    mass: 6.940000
    reduced_to: 1
  - symbol: Li # 16
    coordinates: [  0.000000001194882,  0.666666668963259,  0.333333334003859 ]
    mass: 6.940000
    reduced_to: 1
  - symbol: Li # 17
    coordinates: [  0.333333334528216,  0.666666668963259,  0.333333334003859 ]
    mass: 6.940000
    reduced_to: 1
  - symbol: Li # 18
    coordinates: [  0.666666667861549,  0.666666668963259,  0.333333334003859 ]
    mass: 6.940000
    reduced_to: 1
  - symbol: Li # 19
    coordinates: [  0.000000001194882,  0.000000002296593,  0.666666667337192 ]
    mass: 6.940000
    reduced_to: 1
  - symbol: Li # 20
    coordinates: [  0.333333334528216,  0.000000002296593,  0.666666667337192 ]
    mass: 6.940000
    reduced_to: 1
  - symbol: Li # 21
    coordinates: [  0.666666667861549,  0.000000002296593,  0.666666667337192 ]
    mass: 6.940000
    reduced_to: 1
  - symbol: Li # 22
    coordinates: [  0.000000001194882,  0.333333335629926,  0.666666667337192 ]
    mass: 6.940000
    reduced_to: 1
  - symbol: Li # 23
    coordinates: [  0.333333334528216,  0.333333335629926,  0.666666667337192 ]
    mass: 6.940000
    reduced_to: 1
  - symbol: Li # 24
    coordinates: [  0.666666667861549,  0.333333335629926,  0.666666667337192 ]
    mass: 6.940000
    reduced_to: 1
  - symbol: Li # 25
    coordinates: [  0.000000001194882,  0.666666668963259,  0.666666667337192 ]
    mass: 6.940000
    reduced_to: 1
  - symbol: Li # 26
    coordinates: [  0.333333334528216,  0.666666668963259,  0.666666667337192 ]
    mass: 6.940000
    reduced_to: 1
  - symbol: Li # 27
    coordinates: [  0.666666667861549,  0.666666668963259,  0.666666667337192 ]
    mass: 6.940000
    reduced_to: 1
  - symbol: Sn # 28
    coordinates: [  0.166666665454586,  0.166666664347692,  0.166666665981846 ]
    mass: 118.710000
    reduced_to: 28
  - symbol: Sn # 29
    coordinates: [  0.499999998787919,  0.166666664347692,  0.166666665981846 ]
    mass: 118.710000
    reduced_to: 28
  - symbol: Sn # 30
    coordinates: [  0.833333332121252,  0.166666664347692,  0.166666665981846 ]
    mass: 118.710000
    reduced_to: 28
  - symbol: Sn # 31
    coordinates: [  0.166666665454586,  0.499999997681026,  0.166666665981846 ]
    mass: 118.710000
    reduced_to: 28
  - symbol: Sn # 32
    coordinates: [  0.499999998787919,  0.499999997681026,  0.166666665981846 ]
    mass: 118.710000
    reduced_to: 28
  - symbol: Sn # 33
    coordinates: [  0.833333332121252,  0.499999997681026,  0.166666665981846 ]
    mass: 118.710000
    reduced_to: 28
  - symbol: Sn # 34
    coordinates: [  0.166666665454586,  0.833333331014359,  0.166666665981846 ]
    mass: 118.710000
    reduced_to: 28
  - symbol: Sn # 35
    coordinates: [  0.499999998787919,  0.833333331014359,  0.166666665981846 ]
    mass: 118.710000
    reduced_to: 28
  - symbol: Sn # 36
    coordinates: [  0.833333332121252,  0.833333331014359,  0.166666665981846 ]
    mass: 118.710000
    reduced_to: 28
  - symbol: Sn # 37
    coordinates: [  0.166666665454586,  0.166666664347692,  0.499999999315179 ]
    mass: 118.710000
    reduced_to: 28
  - symbol: Sn # 38
    coordinates: [  0.499999998787919,  0.166666664347692,  0.499999999315179 ]
    mass: 118.710000
    reduced_to: 28
  - symbol: Sn # 39
    coordinates: [  0.833333332121252,  0.166666664347692,  0.499999999315179 ]
    mass: 118.710000
    reduced_to: 28
  - symbol: Sn # 40
    coordinates: [  0.166666665454586,  0.499999997681026,  0.499999999315179 ]
    mass: 118.710000
    reduced_to: 28
  - symbol: Sn # 41
    coordinates: [  0.499999998787919,  0.499999997681026,  0.499999999315179 ]
    mass: 118.710000
    reduced_to: 28
  - symbol: Sn # 42
    coordinates: [  0.833333332121252,  0.499999997681026,  0.499999999315179 ]
    mass: 118.710000
    reduced_to: 28
  - symbol: Sn # 43
    coordinates: [  0.166666665454586,  0.833333331014359,  0.499999999315179 ]
    mass: 118.710000
    reduced_to: 28
  - symbol: Sn # 44
    coordinates: [  0.499999998787919,  0.833333331014359,  0.499999999315179 ]
    mass: 118.710000
    reduced_to: 28
  - symbol: Sn # 45
    coordinates: [  0.833333332121252,  0.833333331014359,  0.499999999315179 ]
    mass: 118.710000
    reduced_to: 28
  - symbol: Sn # 46
    coordinates: [  0.166666665454586,  0.166666664347692,  0.833333332648512 ]
    mass: 118.710000
    reduced_to: 28
  - symbol: Sn # 47
    coordinates: [  0.499999998787919,  0.166666664347692,  0.833333332648512 ]
    mass: 118.710000
    reduced_to: 28
  - symbol: Sn # 48
    coordinates: [  0.833333332121252,  0.166666664347692,  0.833333332648512 ]
    mass: 118.710000
    reduced_to: 28
  - symbol: Sn # 49
    coordinates: [  0.166666665454586,  0.499999997681026,  0.833333332648512 ]
    mass: 118.710000
    reduced_to: 28
  - symbol: Sn # 50
    coordinates: [  0.499999998787919,  0.499999997681026,  0.833333332648512 ]
    mass: 118.710000
    reduced_to: 28
  - symbol: Sn # 51
    coordinates: [  0.833333332121252,  0.499999997681026,  0.833333332648512 ]
    mass: 118.710000
    reduced_to: 28
  - symbol: Sn # 52
    coordinates: [  0.166666665454586,  0.833333331014359,  0.833333332648512 ]
    mass: 118.710000
    reduced_to: 28
  - symbol: Sn # 53
    coordinates: [  0.499999998787919,  0.833333331014359,  0.833333332648512 ]
    mass: 118.710000
    reduced_to: 28
  - symbol: Sn # 54
    coordinates: [  0.833333332121252,  0.833333331014359,  0.833333332648512 ]
    mass: 118.710000
    reduced_to: 28

displacements:
- atom:    1
  displacement:
    [   0.0100000000000000,  0.0000000000000000,  0.0000000000000000 ]
  forces:
  - [  -0.0213295500725508, -0.0000002558717824,  0.0000001728931238 ]
  - [   0.0007925564423203, -0.0000003406967153, -0.0000001607440936 ]
  - [   0.0007846169173717, -0.0000007440739864,  0.0000001526132110 ]
  - [  -0.0004670060297940, -0.0000023739412427, -0.0000003980003385 ]
  - [   0.0001802587357815,  0.0002602364111226, -0.0000007410999388 ]
  - [   0.0001797639415599, -0.0002569285861682, -0.0000006036816558 ]
  - [  -0.0004668856272474,  0.0000024931505322, -0.0000008401984815 ]
  - [   0.0001799999154173, -0.0002599993022159, -0.0000004806461220 ]
  - [   0.0001797170843929,  0.0002575304242782, -0.0000008309198165 ]
  - [  -0.0004671140341088,  0.0000001101566056, -0.0000024260953069 ]
  - [   0.0001800876343623, -0.0000003556575052,  0.0002600671723485 ]
  - [   0.0001798761077225, -0.0000005723230174, -0.0002574190148152 ]
  - [   0.0004190550534986, -0.0000027691130526, -0.0000020496663637 ]
  - [  -0.0006070421077311, -0.0005627576028928, -0.0005620591109619 ]
  - [  -0.0006086085340939,  0.0005654667038471,  0.0005661104805768 ]
  - [   0.0004193099448457,  0.0000023194297682, -0.0000016221893020 ]
  - [  -0.0006076450808905,  0.0005625023040920, -0.0005618641735055 ]
  - [  -0.0006089063244872, -0.0005653542466462,  0.0005669742822647 ]
  - [  -0.0004669018089771, -0.0000001195658115,  0.0000017485035642 ]
  - [   0.0001804186031222, -0.0000004826488293, -0.0002603114116937 ]
  - [   0.0001798840239644, -0.0000006803129509,  0.0002567493065726 ]
  - [   0.0004193423956167, -0.0000028889626265,  0.0000021343057597 ]
  - [  -0.0006073543336242, -0.0005635395646095,  0.0005628257640637 ]
  - [  -0.0006089793168940,  0.0005654478445649, -0.0005657995934598 ]
  - [   0.0004193850618321,  0.0000021748128347,  0.0000027897476684 ]
  - [  -0.0006071727257222,  0.0005624013720080,  0.0005625343183056 ]
  - [  -0.0006088147638366, -0.0005657259607688, -0.0005658321315423 ]
  - [   0.0030334815382957,  0.0034919935278594,  0.0034920801408589 ]
  - [  -0.0001645887678023,  0.0000012607197277,  0.0000018810969777 ]
  - [   0.0030060312710702, -0.0034398734569550, -0.0034383323509246 ]
  - [  -0.0000412454028265, -0.0000004005593439, -0.0000804899027571 ]
  - [   0.0000493011611979, -0.0000006481819241, -0.0000007287017070 ]
  - [  -0.0000408366031479, -0.0000016625563148,  0.0000791001366451 ]
  - [   0.0030337111093104, -0.0034914028365165,  0.0034922042395920 ]
  - [  -0.0001639358233660, -0.0000008065253496,  0.0000013766693883 ]
  - [   0.0030056815594435,  0.0034395691473037, -0.0034379044082016 ]
  - [  -0.0000424129757448, -0.0000805212184787,  0.0000000354484655 ]
  - [   0.0000491297105327,  0.0000000328873284, -0.0000008409842849 ]
  - [  -0.0000410221691709,  0.0000792810460553, -0.0000014778925106 ]
  - [  -0.0000815909224912,  0.0000005833280738, -0.0000004435714800 ]
  - [   0.0001641963317525,  0.0000006644404493, -0.0000012081582099 ]
  - [  -0.0000810155470390,  0.0000009196810424, -0.0000006664195098 ]
  - [  -0.0000419971183874,  0.0000809656630736, -0.0000015934929252 ]
  - [   0.0000499976449646,  0.0000013025419321, -0.0000007127528079 ]
  - [  -0.0000418346025981, -0.0000784541771282, -0.0000010675285012 ]
  - [   0.0030344054102898,  0.0034922058694065, -0.0034919567406178 ]
  - [  -0.0001648139150348,  0.0000018037389964, -0.0000002505839802 ]
  - [   0.0030067502520978, -0.0034372278023511,  0.0034393370151520 ]
  - [  -0.0000423527671956,  0.0000003648747224,  0.0000811044010334 ]
  - [   0.0000495682470500, -0.0000003154855222,  0.0000010861840565 ]
  - [  -0.0000413849484175,  0.0000000381842256, -0.0000783280702308 ]
  - [   0.0030337176285684, -0.0034920787438750, -0.0034903422929347 ]
  - [  -0.0001648688921705, -0.0000013957906049, -0.0000004859757610 ]
  - [   0.0030056487303227,  0.0034389998763800,  0.0034397733397782 ]
- atom:   28
  displacement:
    [   0.0100000000000000,  0.0000000000000000,  0.0000000000000000 ]
  forces:
  - [   0.0030145822092891,  0.0034251951146871,  0.0034256461076438 ]
  - [   0.0030223187059164, -0.0035047363489866, -0.0035047899000347 ]
  - [  -0.0001668594777584,  0.0000059838403104,  0.0000070779660746 ]
  - [   0.0030147861689329, -0.0034253448247910,  0.0034255844075233 ]
  - [   0.0030221783090383,  0.0035051510203630, -0.0035049116704613 ]
  - [  -0.0001664488227107, -0.0000062191393226,  0.0000063742700149 ]
  - [  -0.0000426358674304,  0.0000001695007086, -0.0000800817433628 ]
  - [  -0.0000433238456026, -0.0000003269524314,  0.0000798271285021 ]
  - [   0.0000485690252390,  0.0000000684231054, -0.0000016193898773 ]
  - [   0.0030144327320158,  0.0034259937237948, -0.0034254826605320 ]
  - [   0.0030219925101846, -0.0035045510157943,  0.0035049133002758 ]
  - [  -0.0001662869472057,  0.0000064576229306, -0.0000068927765824 ]
  - [   0.0030147363431752, -0.0034258170053363, -0.0034252153709531 ]
  - [   0.0030220826156437,  0.0035043843090534,  0.0035050695296377 ]
  - [  -0.0001662341237534, -0.0000069061643444, -0.0000062475155573 ]
  - [  -0.0000425376747444, -0.0000004562607501,  0.0000803504372016 ]
  - [  -0.0000435065885540, -0.0000004242174327, -0.0000791507191025 ]
  - [   0.0000485654745717, -0.0000004288740456,  0.0000026728375815 ]
  - [  -0.0000424161553383, -0.0000795708037913, -0.0000006816499081 ]
  - [  -0.0000430336222053,  0.0000798213441158, -0.0000005091733328 ]
  - [   0.0000487007200718, -0.0000014523666323, -0.0000007766802810 ]
  - [  -0.0000425013931817,  0.0000794399529696, -0.0000005237452569 ]
  - [  -0.0000430440995842, -0.0000805945892353, -0.0000002214219421 ]
  - [   0.0000484988267999,  0.0000008608039934, -0.0000003368186299 ]
  - [  -0.0000831770012155, -0.0000007415947039, -0.0000001234002411 ]
  - [  -0.0000812814978417, -0.0000004891480785, -0.0000004643807188 ]
  - [   0.0001628601457924, -0.0000006047484931, -0.0000007125781849 ]
  - [  -0.0318468324840069,  0.0000000630388968, -0.0000000709551387 ]
  - [   0.0041966252028942, -0.0000006099580787, -0.0000003723544069 ]
  - [   0.0039908154867589, -0.0000016146805137,  0.0000002711312845 ]
  - [   0.0007964506512508, -0.0000011879634485, -0.0000005916226655 ]
  - [  -0.0002426386054140,  0.0009005618630908, -0.0000006108311936 ]
  - [  -0.0002403843973298, -0.0009019750868902, -0.0000006734626368 ]
  - [   0.0007959627546370,  0.0000010270741768, -0.0000005331821740 ]
  - [  -0.0002417731448077, -0.0009002020815387, -0.0000006431946531 ]
  - [  -0.0002406109415460,  0.0009019901044667, -0.0000006667105481 ]
  - [   0.0007955966866575, -0.0000006784102879, -0.0000008166825864 ]
  - [  -0.0002428576117381,  0.0000002882443368,  0.0009006375912577 ]
  - [  -0.0002401953388471, -0.0000002754968591, -0.0009018990676850 ]
  - [   0.0001351693936158, -0.0000023478351068, -0.0000037325371522 ]
  - [  -0.0001820089528337, -0.0003139032050967, -0.0003158290637657 ]
  - [  -0.0001842024794314,  0.0003169987467118,  0.0003154561272822 ]
  - [   0.0001354793203063,  0.0000040567829274, -0.0000042878673412 ]
  - [  -0.0001820231555030,  0.0003158528124914, -0.0003153611323796 ]
  - [  -0.0001849147665780, -0.0003151228884235,  0.0003154149744660 ]
  - [   0.0007958688656799, -0.0000007769558579,  0.0000009581563063 ]
  - [  -0.0002419558877591,  0.0000000917352736, -0.0008996228571050 ]
  - [  -0.0002402818645351,  0.0000008331262507,  0.0009013484232128 ]
  - [   0.0001350544625893, -0.0000025743502192,  0.0000043918844312 ]
  - [  -0.0001822530757636, -0.0003150062402710,  0.0003161091299262 ]
  - [  -0.0001841722405516,  0.0003159968182445, -0.0003147936076857 ]
  - [   0.0001357452129014,  0.0000033506366890,  0.0000050041708164 ]
  - [  -0.0001824339851737,  0.0003153396246489,  0.0003162200737279 ]
  - [  -0.0001842072233558, -0.0003150356933475, -0.0003140841727145 ]

force_constants:
  format: "full"
  shape: [ 54, 54 ]
  elements:
  - # (1, 1)
    - [     2.132887033097195,     0.000000000317533,     0.000000000097577 ]
    - [     0.000000000317533,     2.132887031990018,     0.000000000691321 ]
    - [     0.000000000097577,     0.000000000691321,     2.132887032772242 ]
  - # (1, 2)
    - [    -0.078926643159094,    -0.000000000324266,    -0.000000000718258 ]
    - [    -0.000000001860971,     0.046629712413158,     0.000000001021865 ]
    - [    -0.000000004145788,     0.000000000703042,     0.046629713273690 ]
  - # (1, 3)
    - [    -0.078926643340419,    -0.000000000330512,    -0.000000000463762 ]
    - [    -0.000000001755919,     0.046629712108224,     0.000000001180291 ]
    - [    -0.000000004098477,     0.000000000790967,     0.046629712901011 ]
  - # (1, 4)
    - [     0.046629713809340,     0.000000001231636,     0.000000000154810 ]
    - [     0.000000001048165,    -0.078926642682032,    -0.000000000613194 ]
    - [     0.000000000079278,    -0.000000001286360,     0.046629713398841 ]
  - # (1, 5)
    - [    -0.018068049711828,    -0.025865519258295,    -0.000000000485340 ]
    - [    -0.025865519076839,    -0.018068049914654,     0.000000000810494 ]
    - [    -0.000000000423573,     0.000000000492488,    -0.041995284681722 ]
  - # (1, 6)
    - [    -0.018068049479417,     0.025865520532006,    -0.000000000441555 ]
    - [     0.025865520564124,    -0.018068049730035,    -0.000000000698587 ]
    - [     0.000000000567765,     0.000000000248392,    -0.041995285161054 ]
  - # (1, 7)
    - [     0.046629713820850,    -0.000000000283107,    -0.000000000113665 ]
    - [     0.000000001214873,    -0.078926641114024,    -0.000000000819399 ]
    - [    -0.000000000053570,    -0.000000004558730,     0.046629713397821 ]
  - # (1, 8)
    - [    -0.018068049812314,     0.025865520413497,     0.000000001685282 ]
    - [     0.025865519435364,    -0.018068048666566,    -0.000000000175183 ]
    - [     0.000000001830539,    -0.000000000302558,    -0.041995285035902 ]
  - # (1, 9)
    - [    -0.018068049478269,    -0.025865520136542,    -0.000000001779821 ]
    - [    -0.025865520064923,    -0.018068050844297,    -0.000000001214657 ]
    - [    -0.000000002097314,    -0.000000001787556,    -0.041995285621696 ]
  - # (1, 10)
    - [     0.046629713939937,     0.000000000497653,     0.000000002327572 ]
    - [    -0.000000000057059,     0.046629712441531,     0.000000001881523 ]
    - [     0.000000001564882,     0.000000002827969,    -0.078926643174873 ]
  - # (1, 11)
    - [    -0.018068049937488,    -0.000000000685248,    -0.025865519688601 ]
    - [    -0.000000000520890,    -0.041995284544832,    -0.000000001208242 ]
    - [    -0.025865519379931,    -0.000000001966110,    -0.018068050332487 ]
  - # (1, 12)
    - [    -0.018068049391844,    -0.000000000940062,     0.025865520450711 ]
    - [    -0.000000000512621,    -0.041995284760340,    -0.000000000575019 ]
    - [     0.025865520658888,    -0.000000002247361,    -0.018068049363985 ]
  - # (1, 13)
    - [    -0.041995284578301,     0.000000000584607,     0.000000000380833 ]
    - [     0.000000001159012,    -0.018068050094516,    -0.025865518916946 ]
    - [     0.000000000323866,    -0.025865519371510,    -0.018068050847164 ]
  - # (1, 14)
    - [     0.060738563373039,     0.056419970246092,     0.056419972237972 ]
    - [     0.056419969940662,     0.060738562934033,     0.056419973373946 ]
    - [     0.056419972180449,     0.056419972861827,     0.060738567532268 ]
  - # (1, 15)
    - [     0.060738568480933,    -0.056419970332531,    -0.056419972000557 ]
    - [    -0.056419969758125,     0.060738561888935,     0.056419971525797 ]
    - [    -0.056419972057524,     0.056419971071233,     0.060738566182680 ]
  - # (1, 16)
    - [    -0.041995284790980,    -0.000000000572507,     0.000000000293330 ]
    - [    -0.000000001883209,    -0.018068049251136,     0.025865519091967 ]
    - [    -0.000000000343588,     0.025865519301712,    -0.018068048259732 ]
  - # (1, 17)
    - [     0.060738564361738,    -0.056419971958155,     0.056419970985175 ]
    - [    -0.056419968714232,     0.060738564277282,    -0.056419968164939 ]
    - [     0.056419969347507,    -0.056419969688339,     0.060738562803474 ]
  - # (1, 18)
    - [     0.060738566884453,     0.056419973549404,    -0.056419969577309 ]
    - [     0.056419971203517,     0.060738566338203,    -0.056419968696954 ]
    - [    -0.056419969811876,    -0.056419971173343,     0.060738563208782 ]
  - # (1, 19)
    - [     0.046629713287591,     0.000000000040317,    -0.000000001069331 ]
    - [     0.000000000111936,     0.046629712553969,    -0.000000000491559 ]
    - [     0.000000001518602,     0.000000002846008,    -0.078926642210527 ]
  - # (1, 20)
    - [    -0.018068050503703,    -0.000000000695650,     0.025865521386087 ]
    - [     0.000000000019234,    -0.041995284788135,    -0.000000000119495 ]
    - [     0.025865520644098,    -0.000000001670670,    -0.018068048870480 ]
  - # (1, 21)
    - [    -0.018068049456690,    -0.000000000021354,    -0.025865520215961 ]
    - [    -0.000000000457170,    -0.041995285031442,    -0.000000001327764 ]
    - [    -0.025865519801305,    -0.000000002034333,    -0.018068050032512 ]
  - # (1, 22)
    - [    -0.041995284980366,     0.000000000468808,    -0.000000001031131 ]
    - [    -0.000000000018904,    -0.018068050046239,     0.025865519617497 ]
    - [    -0.000000001846508,     0.025865519246366,    -0.018068047618007 ]
  - # (1, 23)
    - [     0.060738565823104,     0.056419973677341,    -0.056419969958679 ]
    - [     0.056419971519673,     0.060738566133920,    -0.056419968280501 ]
    - [    -0.056419969220964,    -0.056419969708494,     0.060738562855311 ]
  - # (1, 24)
    - [     0.060738565701572,    -0.056419971087736,     0.056419970736205 ]
    - [    -0.056419971271207,     0.060738566335012,    -0.056419969918513 ]
    - [     0.056419970660673,    -0.056419970591679,     0.060738564986800 ]
  - # (1, 25)
    - [    -0.041995286245339,    -0.000000000931706,    -0.000000001330003 ]
    - [    -0.000000000423318,    -0.018068049395585,    -0.025865519071131 ]
    - [    -0.000000001931956,    -0.025865519815015,    -0.018068051215559 ]
  - # (1, 26)
    - [     0.060738566205636,    -0.056419969453089,    -0.056419971626842 ]
    - [    -0.056419969790419,     0.060738561668582,     0.056419969918205 ]
    - [    -0.056419971988788,     0.056419969554394,     0.060738565224630 ]
  - # (1, 27)
    - [     0.060738563859039,     0.056419969987115,     0.056419971871573 ]
    - [     0.056419969987115,     0.060738563382882,     0.056419972780828 ]
    - [     0.056419971871573,     0.056419972780828,     0.060738568373934 ]
  - # (1, 28)
    - [    -0.301915799726693,    -0.346525200593047,    -0.346525213590951 ]
    - [    -0.346525200613845,    -0.301915805099299,    -0.346525215072116 ]
    - [    -0.346525213681926,    -0.346525214978713,    -0.301915829926899 ]
  - # (1, 29)
    - [     0.016550505357429,     0.000000000023592,    -0.000000000339993 ]
    - [     0.000000000052329,     0.004225581546247,     0.007981759462804 ]
    - [    -0.000000000511953,     0.007981759185305,     0.004225582125619 ]
  - # (1, 30)
    - [    -0.301915812801843,     0.346525199561235,     0.346525209550613 ]
    - [     0.346525201624040,    -0.301915789445983,    -0.346525196878134 ]
    - [     0.346525211087229,    -0.346525196809677,    -0.301915808739536 ]
  - # (1, 31)
    - [     0.004225581764825,    -0.000000000153694,     0.007981758744516 ]
    - [    -0.000000000211544,     0.016550505363984,     0.000000000211462 ]
    - [     0.007981758757879,     0.000000000166046,     0.004225582477797 ]
  - # (1, 32)
    - [    -0.004904089260420,     0.000000000146483,    -0.000000001129527 ]
    - [     0.000000000197077,    -0.004904090298811,    -0.000000000142222 ]
    - [    -0.000000001309971,    -0.000000001568513,     0.008176670029970 ]
  - # (1, 33)
    - [     0.004225582700732,     0.000000000232044,    -0.007981757384073 ]
    - [    -0.000000000396974,     0.016550505474102,     0.000000000265034 ]
    - [    -0.007981757615603,     0.000000000122187,     0.004225582739984 ]
  - # (1, 34)
    - [    -0.301915807710757,     0.346525213010576,    -0.346525206377283 ]
    - [     0.346525212936134,    -0.301915818914657,     0.346525213452024 ]
    - [    -0.346525206461137,     0.346525212859237,    -0.301915806333429 ]
  - # (1, 35)
    - [     0.016550506123594,     0.000000000277686,    -0.000000000227205 ]
    - [     0.000000000596761,     0.004225581906459,    -0.007981758445607 ]
    - [    -0.000000000344684,    -0.007981759010285,     0.004225582138159 ]
  - # (1, 36)
    - [    -0.301915813396085,    -0.346525218340925,     0.346525202218183 ]
    - [    -0.346525208803093,    -0.301915817306812,     0.346525199893143 ]
    - [     0.346525198649106,     0.346525205903239,    -0.301915787604407 ]
  - # (1, 37)
    - [     0.004225582235898,     0.007981758423440,    -0.000000000819776 ]
    - [     0.007981758474136,     0.004225581392660,     0.000000000231092 ]
    - [    -0.000000000718736,    -0.000000001009570,     0.016550505436299 ]
  - # (1, 38)
    - [    -0.004904089741061,    -0.000000000127996,     0.000000000418710 ]
    - [    -0.000000000408415,     0.008176670073113,    -0.000000000167333 ]
    - [     0.000000000541530,    -0.000000000094752,    -0.004904089223544 ]
  - # (1, 39)
    - [     0.004225582487309,    -0.007981758363001,     0.000000000663033 ]
    - [    -0.007981758409194,     0.004225582290480,     0.000000000249209 ]
    - [     0.000000000191355,    -0.000000000596626,     0.016550506005260 ]
  - # (1, 40)
    - [     0.008176669835642,    -0.000000000217005,    -0.000000000626008 ]
    - [     0.000000000034350,    -0.004904089708949,     0.000000001234550 ]
    - [    -0.000000000680405,     0.000000000847683,    -0.004904089787536 ]
  - # (1, 41)
    - [    -0.016352777966664,     0.000000000432083,     0.000000000359121 ]
    - [     0.000000000411175,    -0.016352779463609,     0.000000000815732 ]
    - [     0.000000000268298,     0.000000000909396,    -0.016352778441061 ]
  - # (1, 42)
    - [     0.008176670201647,    -0.000000000205019,    -0.000000001079689 ]
    - [    -0.000000000043311,    -0.004904089546112,     0.000000000792931 ]
    - [    -0.000000000978261,     0.000000000585224,    -0.004904089400883 ]
  - # (1, 43)
    - [     0.004225583063340,    -0.007981757994566,    -0.000000000409224 ]
    - [    -0.007981757835599,     0.004225581809006,    -0.000000000042642 ]
    - [    -0.000000001288350,    -0.000000001179022,     0.016550505828701 ]
  - # (1, 44)
    - [    -0.004904088732840,     0.000000000344159,     0.000000000248125 ]
    - [     0.000000000270353,     0.008176669461493,     0.000000002018727 ]
    - [     0.000000000164093,     0.000000001425470,    -0.004904089224324 ]
  - # (1, 45)
    - [     0.004225581619793,     0.007981759746635,     0.000000000003904 ]
    - [     0.007981758927877,     0.004225581902896,     0.000000001077985 ]
    - [     0.000000000116343,     0.000000000570777,     0.016550506398821 ]
  - # (1, 46)
    - [    -0.301915814354321,    -0.346525220013695,     0.346525204012695 ]
    - [    -0.346525209675868,    -0.301915817740099,     0.346525200425426 ]
    - [     0.346525206054583,     0.346525212915014,    -0.301915795135189 ]
  - # (1, 47)
    - [     0.016550506455735,     0.000000000023276,     0.000000000284193 ]
    - [    -0.000000000668089,     0.004225582516311,    -0.007981758653269 ]
    - [     0.000000000450290,    -0.007981759223322,     0.004225581682537 ]
  - # (1, 48)
    - [    -0.301915806817451,     0.346525210445087,    -0.346525204222844 ]
    - [     0.346525194579138,    -0.301915800090135,     0.346525194580177 ]
    - [    -0.346525194441005,     0.346525200840607,    -0.301915795130842 ]
  - # (1, 49)
    - [     0.004225583426885,     0.000000000156195,    -0.007981758036752 ]
    - [    -0.000000001231454,     0.016550505515212,    -0.000000000450654 ]
    - [    -0.007981758150420,    -0.000000000275050,     0.004225582023403 ]
  - # (1, 50)
    - [    -0.004904088737243,     0.000000000956482,     0.000000000509146 ]
    - [     0.000000000293047,    -0.004904089334129,     0.000000000674467 ]
    - [     0.000000000767037,     0.000000000153784,     0.008176670017399 ]
  - # (1, 51)