# Tetrahedron method
       -2.1344334881        0.0000000000
       -2.0619980663        0.0000000000
       -1.9895626444        0.0000000000
       -1.9171272225        0.0000000000
       -1.8446918007        0.0000000000
       -1.7722563788        0.0000000000
       -1.6998209570        0.0000000000
       -1.6273855351        0.0000000000
       -1.5549501132        0.0000000000
       -1.4825146914        0.0000000000
       -1.4100792695        0.0000000000
       -1.3376438476        0.0000000000
       -1.2652084258        0.0000000000
       -1.1927730039        0.0000000000
       -1.1203375820        0.0000000000
       -1.0479021602        0.0000000000
       -0.9754667383        0.0000000000
       -0.9030313165        0.0498080260
       -0.8305958946        0.2412430543
       -0.7581604727        1.6580421164
       -0.6857250509        1.8577263122
       -0.6132896290        1.7058753661
       -0.5408542071        1.5394807356
       -0.4684187853        1.4648764926
       -0.3959833634        1.4293615174
       -0.3235479415        1.3181583698
       -0.2511125197        1.0007088680
       -0.1786770978        0.8916570413
       -0.1062416760        0.8571653651
       -0.0338062541        0.8568379967
        0.0386291678        0.8855016571
        0.1110645896        0.9690288221
        0.1835000115        1.1916765707
        0.2559354334        1.5605418955
        0.3283708552        2.1119807046
        0.4008062771        2.3624242366
        0.4732416990        2.7826827729
        0.5456771208        2.9309502297
        0.6181125427        3.2027671228
        0.6905479646        4.7524680585
        0.7629833864        4.5624263033
        0.8354188083        3.0804758470
        0.9078542301        2.8777942894
        0.9802896520        4.6960316391
        1.0527250739        5.7614301022
        1.1251604957        5.9324972338
        1.1975959176        7.3598043945
        1.2700313395        6.8683789517
        1.3424667613        6.9073270808
        1.4149021832        6.1929888874
        1.4873376051        6.9233003922
        1.5597730269        4.5042164913
        1.6322084488        5.5937534456
        1.7046438706        6.0801389951
        1.7770792925        6.1841010305
        1.8495147144        3.2333761340
        1.9219501362        2.8544184816
        1.9943855581        2.5131682159
        2.0668209800        2.7109360244
        2.1392564018        1.7355995346
        2.2116918237        1.1175853478
        2.2841272456        1.1341820411
        2.3565626674        0.5225712587
        2.4289980893        0.8958246722
        2.5014335111        0.8791818099
        2.5738689330        0.9881542519
        2.6463043549        1.4265544433
        2.7187397767        1.7452448906
        2.7911751986        2.7000076105
        2.8636106205        2.6090314911
        2.9360460423        2.7259710802
        3.0084814642        1.7957642434
        3.0809168861        1.3306131351
        3.1533523079        1.8254390853
        3.2257877298        1.9393093558
        3.2982231516        2.2245763906
        3.3706585735        2.6903460529
        3.4430939954        3.8563048997
        3.5155294172        4.1349642342
        3.5879648391        3.2463803398
        3.6604002610        4.2464749928
        3.7328356828        6.5445612342
        3.8052711047       12.8290087222
        3.8777065266       10.9297472695
        3.9501419484        0.6865354171
        4.0225773703        0.5771811422
        4.0950127921        0.5009775856
        4.1674482140        0.4466978377
        4.2398836359        0.4144346397
        4.3123190577        0.0655678106
        4.3847544796        0.0000000000
        4.4571899015        0.0000000000
        4.5296253233        0.0000000000
        4.6020607452        0.5554880259
        4.6744961671        0.7347684977
        4.7469315889        2.7313216664
        4.8193670108        3.1413888011
        4.8918024326        3.7913444550
        4.9642378545        3.4415166314
        5.0366732764        3.4327142933
        5.1091086982        5.3587761625
        5.1815441201        6.7806342116
        5.2539795420        7.3537122510
        5.3264149638        6.0472487344
        5.3988503857        6.3264545511
        5.4712858076        3.6125837841
        5.5437212294        2.5968819914
        5.6161566513        2.5186860851
        5.6885920731        1.8886338501
        5.7610274950        3.0802403999
        5.8334629169        3.6542162614
        5.9058983387        3.3304888638
        5.9783337606        2.2273969650
        6.0507691825        3.8898289381
        6.1232046043        3.7725057284
        6.1956400262        2.7770436963
        6.2680754481        2.4770259249
        6.3405108699        3.1588899653
        6.4129462918        2.6213787672
        6.4853817136        5.4088059803
        6.5578171355        7.0311940423
        6.6302525574        2.9380274950
        6.7026879792        3.9105003417
        6.7751234011        4.7671349551
        6.8475588230        3.1876140426
        6.9199942448        1.4407488137
        6.9924296667        0.6997084429
        7.0648650886        0.5133189990
        7.1373005104        0.3795504021
        7.2097359323        0.2623046552
        7.2821713541        0.0000000000
        7.3546067760        0.9143686374
        7.4270421979        1.0001796008
        7.4994776197        1.7521756712
        7.5719130416        3.7761506093
        7.6443484635        4.4823025633
        7.7167838853        9.4744756172
        7.7892193072        7.7414666833
        7.8616547291        6.7866604273
        7.9340901509        6.2870195811
        8.0065255728        7.0893755268
        8.0789609946        5.8695246485
        8.1513964165        5.1673598260
        8.2238318384        8.0954705197
        8.2962672602        5.3864145135
        8.3687026821        2.6086551385
        8.4411381040        7.2461237488
        8.5135735258        4.9063150553
        8.5860089477        5.8992893717
        8.6584443696        5.6906277070
        8.7308797914        4.6180576576
        8.8033152133        3.5410756758
        8.8757506351        3.8124161241
        8.9481860570        4.5570293620
        9.0206214789        4.1567387259
        9.0930569007        3.1379107596
        9.1654923226        3.7091628386
        9.2379277445        2.7975078888
        9.3103631663        2.8803173403
        9.3827985882        7.5455799096
        9.4552340101        6.7981918509
        9.5276694319        6.2550255437
        9.6001048538        3.2773690605
        9.6725402757        6.1055776908
        9.7449756975        5.2496004041
        9.8174111194        6.1334957752
        9.8898465412        6.4515850415
        9.9622819631        7.1259945012
       10.0347173850        4.8865379562
       10.1071528068        4.5764860150
       10.1795882287        6.4631493402
       10.2520236506        5.8284560678
       10.3244590724        6.1427021899
       10.3968944943        4.4516820818
       10.4693299162        3.4855896905
       10.5417653380        2.6037522349
       10.6142007599        2.4292017833
       10.6866361817        3.9648660283
       10.7590716036        6.4197770083
       10.8315070255        9.7560735948
       10.9039424473        2.2896686287
       10.9763778692        1.0535584133
       11.0488132911        0.7900247766
       11.1212487129        0.6802187644
       11.1936841348        0.0000000000
       11.2661195567        0.0000000000
       11.3385549785        0.0000000000
       11.4109904004        0.0000000000
       11.4834258222        0.0000000000
       11.5558612441        0.0000000000
       11.6282966660        0.0000000000
       11.7007320878        0.0000000000
       11.7731675097        0.0000000000
       11.8456029316        0.0000000000
       11.9180383534        0.0000000000
       11.9904737753        0.0000000000
       12.0629091972        0.0000000000
       12.1353446190        0.0000000000
       12.2077800409        0.0000000000
       12.2802154627        0.0000000000
       12.3526508846        0.0000000000
