# Thermal properties / unit cell (natom)

unit:
  temperature:   K
  free_energy:   kJ/mol
  entropy:       J/K/mol
  heat_capacity: J/K/mol

natom: 18   
cutoff_frequency: 0.00000
num_modes: 202500
num_integrated_modes: 202498

zero_point_energy:      71.9634154

thermal_properties:
- temperature:         0.0000000
  free_energy:        71.9634154
  entropy:             0.0000000
  heat_capacity:       0.0000000
  energy:             71.9634154

- temperature:        10.0000000
  free_energy:        71.9603798
  entropy:             1.1450938
  heat_capacity:       3.5105601
  energy:             71.9718307

- temperature:        20.0000000
  free_energy:        71.9164964
  entropy:             9.1466563
  heat_capacity:      24.7041440
  energy:             72.0994295

- temperature:        30.0000000
  free_energy:        71.7530277
  entropy:            24.3755523
  heat_capacity:      52.1111300
  energy:             72.4842942

- temperature:        40.0000000
  free_energy:        71.4183069
  entropy:            42.8993057
  heat_capacity:      77.5453546
  energy:             73.1342792

- temperature:        50.0000000
  free_energy:        70.8905599
  entropy:            62.8063906
  heat_capacity:     101.6732647
  energy:             74.0308794

- temperature:        60.0000000
  free_energy:        70.1597374
  entropy:            83.4575888
  heat_capacity:     125.6050760
  energy:             75.1671927

- temperature:        70.0000000
  free_energy:        69.2196984
  entropy:           104.6238563
  heat_capacity:     149.6331186
  energy:             76.5433683

- temperature:        80.0000000
  free_energy:        68.0660100
  entropy:           126.1649066
  heat_capacity:     173.4588465
  energy:             78.1592025

- temperature:        90.0000000
  free_energy:        66.6956214
  entropy:           147.9392634
  heat_capacity:     196.5695579
  energy:             80.0101551

- temperature:       100.0000000
  free_energy:        65.1069482
  entropy:           169.7967465
  heat_capacity:     218.4943192
  energy:             82.0866228

- temperature:       110.0000000
  free_energy:        63.2998966
  entropy:           191.5917867
  heat_capacity:     238.9099761
  energy:             84.3749931

- temperature:       120.0000000
  free_energy:        61.2757524
  entropy:           213.1956220
  heat_capacity:     257.6512946
  energy:             86.8592270

- temperature:       130.0000000
  free_energy:        59.0369767
  entropy:           234.5024891
  heat_capacity:     274.6798866
  energy:             89.5223003

- temperature:       140.0000000
  free_energy:        56.5869671
  entropy:           255.4307487
  heat_capacity:     290.0443385
  energy:             92.3472719

- temperature:       150.0000000
  free_energy:        53.9298239
  entropy:           275.9209966
  heat_capacity:     303.8455374
  energy:             95.3179734

- temperature:       160.0000000
  free_energy:        51.0701436
  entropy:           295.9328270
  heat_capacity:     316.2110031
  energy:             98.4193960

- temperature:       170.0000000
  free_energy:        48.0128466
  entropy:           315.4412804
  heat_capacity:     327.2776614
  energy:            101.6378643

- temperature:       180.0000000
  free_energy:        44.7630398
  entropy:           334.4335171
  heat_capacity:     337.1811586
  energy:            104.9610728

- temperature:       190.0000000
  free_energy:        41.3259098
  entropy:           352.9059437
  heat_capacity:     346.0497727
  energy:            108.3780391

- temperature:       200.0000000
  free_energy:        37.7066432
  entropy:           370.8618482
  heat_capacity:     354.0013550
  energy:            111.8790128

- temperature:       210.0000000
  free_energy:        33.9103673
  entropy:           388.3095123
  heat_capacity:     361.1421681
  energy:            115.4553649

- temperature:       220.0000000
  free_energy:        29.9421080
  entropy:           405.2607378
  heat_capacity:     367.5668525
  energy:            119.0994703

- temperature:       230.0000000
  free_energy:        25.8067602
  entropy:           421.7297150
  heat_capacity:     373.3590182
  energy:            122.8045947

- temperature:       240.0000000
  free_energy:        21.5090689
  entropy:           437.7321640
  heat_capacity:     378.5921484
  energy:            126.5647882

- temperature:       250.0000000
  free_energy:        17.0536167
  entropy:           453.2846919
  heat_capacity:     383.3306234
  energy:            130.3747897

- temperature:       260.0000000
  free_energy:        12.4448181
  entropy:           468.4043165
  heat_capacity:     387.6307533
  energy:            134.2299403

- temperature:       270.0000000
  free_energy:         7.6869165
  entropy:           483.1081182
  heat_capacity:     391.5417592
  energy:            138.1261084

- temperature:       280.0000000
  free_energy:         2.7839854
  entropy:           497.4129895
  heat_capacity:     395.1066719
  energy:            142.0596225

- temperature:       290.0000000
  free_energy:        -2.2600687
  entropy:           511.3354582
  heat_capacity:     398.3631381
  energy:            146.0272142

- temperature:       300.0000000
  free_energy:        -7.4415026
  entropy:           524.8915669
  heat_capacity:     401.3441310
  energy:            150.0259675

- temperature:       310.0000000
  free_energy:       -12.7567305
  entropy:           538.0967931
  heat_capacity:     404.0785727
  energy:            154.0532753

- temperature:       320.0000000
  free_energy:       -18.2023185
  entropy:           550.9660018
  heat_capacity:     406.5918741
  energy:            158.1068021

- temperature:       330.0000000
  free_energy:       -23.7749780
  entropy:           563.5134198
  heat_capacity:     408.9064016
  energy:            162.1844505

- temperature:       340.0000000
  free_energy:       -29.4715596
  entropy:           575.7526269
  heat_capacity:     411.0418799
  energy:            166.2843336

- temperature:       350.0000000
  free_energy:       -35.2890464
  entropy:           587.6965599
  heat_capacity:     413.0157392
  energy:            170.4047496

- temperature:       360.0000000
  free_energy:       -41.2245476
  entropy:           599.3575246
  heat_capacity:     414.8434129
  energy:            174.5441613

- temperature:       370.0000000
  free_energy:       -47.2752927
  entropy:           610.7472137
  heat_capacity:     416.5385952
  energy:            178.7011764

- temperature:       380.0000000
  free_energy:       -53.4386247
  entropy:           621.8767288
  heat_capacity:     418.1134615
  energy:            182.8745323

- temperature:       390.0000000
  free_energy:       -59.7119952
  entropy:           632.7566052
  heat_capacity:     419.5788595
  energy:            187.0630809

- temperature:       400.0000000
  free_energy:       -66.0929581
  entropy:           643.3968375
  heat_capacity:     420.9444736
  energy:            191.2657769

- temperature:       410.0000000
  free_energy:       -72.5791648
  entropy:           653.8069060
  heat_capacity:     422.2189667
  energy:            195.4816667

- temperature:       420.0000000
  free_energy:       -79.1683590
  entropy:           663.9958036
  heat_capacity:     423.4101036
  energy:            199.7098785

- temperature:       430.0000000
  free_energy:       -85.8583721
  entropy:           673.9720612
  heat_capacity:     424.5248572
  energy:            203.9496143

- temperature:       440.0000000
  free_energy:       -92.6471184
  entropy:           683.7437738
  heat_capacity:     425.5695013
  energy:            208.2001420

- temperature:       450.0000000
  free_energy:       -99.5325914
  entropy:           693.3186242
  heat_capacity:     426.5496913
  energy:            212.4607895

- temperature:       460.0000000
  free_energy:      -106.5128591
  entropy:           702.7039069
  heat_capacity:     427.4705341
  energy:            216.7309381

- temperature:       470.0000000
  free_energy:      -113.5860608
  entropy:           711.9065501
  heat_capacity:     428.3366496
  energy:            221.0100178

- temperature:       480.0000000
  free_energy:      -120.7504033
  entropy:           720.9331373
  heat_capacity:     429.1522240
  energy:            225.2975026

- temperature:       490.0000000
  free_energy:      -128.0041576
  entropy:           729.7899267
  heat_capacity:     429.9210575
  energy:            229.5929065

- temperature:       500.0000000
  free_energy:      -135.3456557
  entropy:           738.4828704
  heat_capacity:     430.6466049
  energy:            233.8957795

- temperature:       510.0000000
  free_energy:      -142.7732877
  entropy:           747.0176325
  heat_capacity:     431.3320124
  energy:            238.2057048

- temperature:       520.0000000
  free_energy:      -150.2854991
  entropy:           755.3996051
  heat_capacity:     431.9801492
  energy:            242.5222956

- temperature:       530.0000000
  free_energy:      -157.8807877
  entropy:           763.6339246
  heat_capacity:     432.5936362
  energy:            246.8451924

- temperature:       540.0000000
  free_energy:      -165.5577017
  entropy:           771.7254862
  heat_capacity:     433.1748708
  energy:            251.1740608

- temperature:       550.0000000
  free_energy:      -173.3148371
  entropy:           779.6789577
  heat_capacity:     433.7260492
  energy:            255.5085896

- temperature:       560.0000000
  free_energy:      -181.1508354
  entropy:           787.4987925
  heat_capacity:     434.2491858
  energy:            259.8484884

- temperature:       570.0000000
  free_energy:      -189.0643817
  entropy:           795.1892416
  heat_capacity:     434.7461310
  energy:            264.1934860

- temperature:       580.0000000
  free_energy:      -197.0542025
  entropy:           802.7543653
  heat_capacity:     435.2185868
  energy:            268.5433294

- temperature:       590.0000000
  free_energy:      -205.1190642
  entropy:           810.1980434
  heat_capacity:     435.6681205
  energy:            272.8977814

- temperature:       600.0000000
  free_energy:      -213.2577710
  entropy:           817.5239853
  heat_capacity:     436.0961772
  energy:            277.2566202

- temperature:       610.0000000
  free_energy:      -221.4691633
  entropy:           824.7357395
  heat_capacity:     436.5040911
  energy:            281.6196378

- temperature:       620.0000000
  free_energy:      -229.7521165
  entropy:           831.8367023
  heat_capacity:     436.8930953
  energy:            285.9866390

- temperature:       630.0000000
  free_energy:      -238.1055389
  entropy:           838.8301260
  heat_capacity:     437.2643307
  energy:            290.3574405

- temperature:       640.0000000
  free_energy:      -246.5283709
  entropy:           845.7191263
  heat_capacity:     437.6188545
  energy:            294.7318699

- temperature:       650.0000000
  free_energy:      -255.0195833
  entropy:           852.5066899
  heat_capacity:     437.9576468
  energy:            299.1097651

- temperature:       660.0000000
  free_energy:      -263.5781762
  entropy:           859.1956812
  heat_capacity:     438.2816174
  energy:            303.4909734

- temperature:       670.0000000
  free_energy:      -272.2031775
  entropy:           865.7888484
  heat_capacity:     438.5916122
  energy:            307.8753509

- temperature:       680.0000000
  free_energy:      -280.8936425
  entropy:           872.2888298
  heat_capacity:     438.8884176
  energy:            312.2627617

- temperature:       690.0000000
  free_energy:      -289.6486520
  entropy:           878.6981590
  heat_capacity:     439.1727662
  energy:            316.6530777

- temperature:       700.0000000
  free_energy:      -298.4673117
  entropy:           885.0192707
  heat_capacity:     439.4453405
  energy:            321.0461778

- temperature:       710.0000000
  free_energy:      -307.3487511
  entropy:           891.2545050
  heat_capacity:     439.7067776
  energy:            325.4419474

- temperature:       720.0000000
  free_energy:      -316.2921230
  entropy:           897.4061128
  heat_capacity:     439.9576720
  energy:            329.8402782

- temperature:       730.0000000
  free_energy:      -325.2966019
  entropy:           903.4762595
  heat_capacity:     440.1985795
  energy:            334.2410676

- temperature:       740.0000000
  free_energy:      -334.3613836
  entropy:           909.4670296
  heat_capacity:     440.4300199
  energy:            338.6442183

- temperature:       750.0000000
  free_energy:      -343.4856846
  entropy:           915.3804302
  heat_capacity:     440.6524800
  energy:            343.0496380

- temperature:       760.0000000
  free_energy:      -352.6687408
  entropy:           921.2183950
  heat_capacity:     440.8664156
  energy:            347.4572394

- temperature:       770.0000000
  free_energy:      -361.9098072
  entropy:           926.9827878
  heat_capacity:     441.0722544
  energy:            351.8669394

- temperature:       780.0000000
  free_energy:      -371.2081573
  entropy:           932.6754053
  heat_capacity:     441.2703977
  energy:            356.2786589

- temperature:       790.0000000
  free_energy:      -380.5630819
  entropy:           938.2979808
  heat_capacity:     441.4612222
  energy:            360.6923229

- temperature:       800.0000000
  free_energy:      -389.9738890
  entropy:           943.8521864
  heat_capacity:     441.6450821
  energy:            365.1078601

- temperature:       810.0000000
  free_energy:      -399.4399031
  entropy:           949.3396365
  heat_capacity:     441.8223106
  energy:            369.5252025

- temperature:       820.0000000
  free_energy:      -408.9604644
  entropy:           954.7618899
  heat_capacity:     441.9932211
  energy:            373.9442853

- temperature:       830.0000000
  free_energy:      -418.5349286
  entropy:           960.1204523
  heat_capacity:     442.1581091
  energy:            378.3650468

- temperature:       840.0000000
  free_energy:      -428.1626660
  entropy:           965.4167790
  heat_capacity:     442.3172527
  energy:            382.7874283

- temperature:       850.0000000
  free_energy:      -437.8430614
  entropy:           970.6522765
  heat_capacity:     442.4709147
  energy:            387.2113736

- temperature:       860.0000000
  free_energy:      -447.5755133
  entropy:           975.8283052
  heat_capacity:     442.6193427
  energy:            391.6368292

- temperature:       870.0000000
  free_energy:      -457.3594337
  entropy:           980.9461810
  heat_capacity:     442.7627707
  energy:            396.0637438

- temperature:       880.0000000
  free_energy:      -467.1942474
  entropy:           986.0071773
  heat_capacity:     442.9014198
  energy:            400.4920686

- temperature:       890.0000000
  free_energy:      -477.0793917
  entropy:           991.0125266
  heat_capacity:     443.0354991
  energy:            404.9217570

- temperature:       900.0000000
  free_energy:      -487.0143164
  entropy:           995.9634227
  heat_capacity:     443.1652065
  energy:            409.3527640

- temperature:       910.0000000
  free_energy:      -496.9984825
  entropy:          1000.8610216
  heat_capacity:     443.2907292
  energy:            413.7850471

- temperature:       920.0000000
  free_energy:      -507.0313629
  entropy:          1005.7064437
  heat_capacity:     443.4122445
  energy:            418.2185653

- temperature:       930.0000000
  free_energy:      -517.1124411
  entropy:          1010.5007746
  heat_capacity:     443.5299206
  energy:            422.6532792

- temperature:       940.0000000
  free_energy:      -527.2412116
  entropy:          1015.2450670
  heat_capacity:     443.6439170
  energy:            427.0891514

- temperature:       950.0000000
  free_energy:      -537.4171791
  entropy:          1019.9403420
  heat_capacity:     443.7543850
  energy:            431.5261458

- temperature:       960.0000000
  free_energy:      -547.6398583
  entropy:          1024.5875898
  heat_capacity:     443.8614680
  energy:            435.9642278

- temperature:       970.0000000
  free_energy:      -557.9087740
  entropy:          1029.1877715
  heat_capacity:     443.9653026
  energy:            440.4033643

- temperature:       980.0000000
  free_energy:      -568.2234600
  entropy:          1033.7418199
  heat_capacity:     444.0660183
  energy:            444.8435235

- temperature:       990.0000000
  free_energy:      -578.5834596
  entropy:          1038.2506408
  heat_capacity:     444.1637384
  energy:            449.2846747

- temperature:      1000.0000000
  free_energy:      -588.9883250
  entropy:          1042.7151137
  heat_capacity:     444.2585802
  energy:            453.7267887
