# Thermal properties / unit cell (natom)

unit:
  temperature:   K
  free_energy:   kJ/mol
  entropy:       J/K/mol
  heat_capacity: J/K/mol

natom: 12   
cutoff_frequency: 0.00000
num_modes: 173880
num_integrated_modes: 173879

zero_point_energy:      39.5339515

thermal_properties:
- temperature:         0.0000000
  free_energy:        39.5339515
  entropy:             0.0000000
  heat_capacity:       0.0000000
  energy:             39.5339515

- temperature:        10.0000000
  free_energy:        39.5311710
  entropy:             1.0835640
  heat_capacity:       3.6304665
  energy:             39.5420067

- temperature:        20.0000000
  free_energy:        39.4853820
  entropy:             9.8293652
  heat_capacity:      27.8032502
  energy:             39.6819693

- temperature:        30.0000000
  free_energy:        39.3047439
  entropy:            27.3232780
  heat_capacity:      60.2251125
  energy:             40.1244423

- temperature:        40.0000000
  free_energy:        38.9273099
  entropy:            48.4044167
  heat_capacity:      86.2877762
  energy:             40.8634865

- temperature:        50.0000000
  free_energy:        38.3356431
  entropy:            69.8624283
  heat_capacity:     105.9773381
  energy:             41.8287645

- temperature:        60.0000000
  free_energy:        37.5323375
  entropy:            90.6637023
  heat_capacity:     122.3511242
  energy:             42.9721596

- temperature:        70.0000000
  free_energy:        36.5250817
  entropy:           110.6569734
  heat_capacity:     137.2677256
  energy:             44.2710698

- temperature:        80.0000000
  free_energy:        35.3216491
  entropy:           129.9146569
  heat_capacity:     151.3582922
  energy:             45.7148217

- temperature:        90.0000000
  free_energy:        33.9289633
  entropy:           148.5187020
  heat_capacity:     164.6676010
  energy:             47.2956465

- temperature:       100.0000000
  free_energy:        32.3532853
  entropy:           166.5188149
  heat_capacity:     177.0758033
  energy:             49.0051668

- temperature:       110.0000000
  free_energy:        30.6005190
  entropy:           183.9389162
  heat_capacity:     188.4774382
  energy:             50.8337998

- temperature:       120.0000000
  free_energy:        28.6764031
  entropy:           200.7900570
  heat_capacity:     198.8293867
  energy:             52.7712100

- temperature:       130.0000000
  free_energy:        26.5865901
  entropy:           217.0795707
  heat_capacity:     208.1466948
  energy:             54.8069343

- temperature:       140.0000000
  free_energy:        24.3366562
  entropy:           232.8158561
  heat_capacity:     216.4843724
  energy:             56.9308760

- temperature:       150.0000000
  free_energy:        21.9320797
  entropy:           248.0102225
  heat_capacity:     223.9197528
  energy:             59.1336131

- temperature:       160.0000000
  free_energy:        19.3782102
  entropy:           262.6771362
  heat_capacity:     230.5394163
  energy:             61.4065520

- temperature:       170.0000000
  free_energy:        16.6802383
  entropy:           276.8337400
  heat_capacity:     236.4307179
  energy:             63.7419741

- temperature:       180.0000000
  free_energy:        13.8431729
  entropy:           290.4991314
  heat_capacity:     241.6768529
  energy:             66.1330166

- temperature:       190.0000000
  free_energy:        10.8718253
  entropy:           303.6936376
  heat_capacity:     246.3543303
  energy:             68.5736165

- temperature:       200.0000000
  free_energy:         7.7708000
  entropy:           316.4381894
  heat_capacity:     250.5319655
  energy:             71.0584379

- temperature:       210.0000000
  free_energy:         4.5444912
  entropy:           328.7538220
  heat_capacity:     254.2707730
  energy:             73.5827938

- temperature:       220.0000000
  free_energy:         1.1970840
  entropy:           340.6612999
  heat_capacity:     257.6243517
  energy:             76.1425700

- temperature:       230.0000000
  free_energy:        -2.2674417
  entropy:           352.1808489
  heat_capacity:     260.6395135
  energy:             78.7341535

- temperature:       240.0000000
  free_energy:        -5.8453050
  entropy:           363.3319733
  heat_capacity:     263.3570013
  energy:             81.3543686

- temperature:       250.0000000
  free_energy:        -9.5329155
  entropy:           374.1333410
  heat_capacity:     265.8122133
  energy:             84.0004198

- temperature:       260.0000000
  free_energy:       -13.3268653
  entropy:           384.6027185
  heat_capacity:     268.0358858
  energy:             86.6698415

- temperature:       270.0000000
  free_energy:       -17.2239194
  entropy:           394.7569426
  heat_capacity:     270.0547150
  energy:             89.3604551

- temperature:       280.0000000
  free_energy:       -21.2210067
  entropy:           404.6119194
  heat_capacity:     271.8919090
  energy:             92.0703307

- temperature:       290.0000000
  free_energy:       -25.3152104
  entropy:           414.1826408
  heat_capacity:     273.5676706
  energy:             94.7977554

- temperature:       300.0000000
  free_energy:       -29.5037591
  entropy:           423.4832138
  heat_capacity:     275.0996163
  energy:             97.5412050

- temperature:       310.0000000
  free_energy:       -33.7840185
  entropy:           432.5268979
  heat_capacity:     276.5031365
  energy:            100.2993199

- temperature:       320.0000000
  free_energy:       -38.1534824
  entropy:           441.3261473
  heat_capacity:     277.7917045
  energy:            103.0708847

- temperature:       330.0000000
  free_energy:       -42.6097657
  entropy:           449.8926547
  heat_capacity:     278.9771409
  energy:            105.8548104

- temperature:       340.0000000
  free_energy:       -47.1505963
  entropy:           458.2373968
  heat_capacity:     280.0698397
  energy:            108.6501186

- temperature:       350.0000000
  free_energy:       -51.7738088
  entropy:           466.3706786
  heat_capacity:     281.0789606
  energy:            111.4559287

- temperature:       360.0000000
  free_energy:       -56.4773374
  entropy:           474.3021767
  heat_capacity:     282.0125947
  energy:            114.2714463

- temperature:       370.0000000
  free_energy:       -61.2592101
  entropy:           482.0409812
  heat_capacity:     282.8779047
  energy:            117.0959529

- temperature:       380.0000000
  free_energy:       -66.1175432
  entropy:           489.5956344
  heat_capacity:     283.6812459
  energy:            119.9287979

- temperature:       390.0000000
  free_energy:       -71.0505358
  entropy:           496.9741692
  heat_capacity:     284.4282700
  energy:            122.7693902

- temperature:       400.0000000
  free_energy:       -76.0564648
  entropy:           504.1841429
  heat_capacity:     285.1240136
  energy:            125.6171924

- temperature:       410.0000000
  free_energy:       -81.1336805
  entropy:           511.2326710
  heat_capacity:     285.7729747
  energy:            128.4717146

- temperature:       420.0000000
  free_energy:       -86.2806024
  entropy:           518.1264568
  heat_capacity:     286.3791791
  energy:            131.3325094

- temperature:       430.0000000
  free_energy:       -91.4957150
  entropy:           524.8718202
  heat_capacity:     286.9462368
  energy:            134.1991677

- temperature:       440.0000000
  free_energy:       -96.7775640
  entropy:           531.4747239
  heat_capacity:     287.4773919
  energy:            137.0713145

- temperature:       450.0000000
  free_energy:      -102.1247534
  entropy:           537.9407978
  heat_capacity:     287.9755649
  energy:            139.9486056

- temperature:       460.0000000
  free_energy:      -107.5359416
  entropy:           544.2753615
  heat_capacity:     288.4433903
  energy:            142.8307247

- temperature:       470.0000000
  free_energy:      -113.0098390
  entropy:           550.4834453
  heat_capacity:     288.8832488
  energy:            145.7173802

- temperature:       480.0000000
  free_energy:      -118.5452048
  entropy:           556.5698093
  heat_capacity:     289.2972954
  energy:            148.6083036

- temperature:       490.0000000
  free_energy:      -124.1408445
  entropy:           562.5389616
  heat_capacity:     289.6874848
  energy:            151.5032466

- temperature:       500.0000000
  free_energy:      -129.7956076
  entropy:           568.3951747
  heat_capacity:     290.0555922
  energy:            154.4019797

- temperature:       510.0000000
  free_energy:      -135.5083851
  entropy:           574.1425008
  heat_capacity:     290.4032330
  energy:            157.3042903

- temperature:       520.0000000
  free_energy:      -141.2781075
  entropy:           579.7847858
  heat_capacity:     290.7318796
  energy:            160.2099811

- temperature:       530.0000000
  free_energy:      -147.1037429
  entropy:           585.3256829
  heat_capacity:     291.0428754
  energy:            163.1188691

- temperature:       540.0000000
  free_energy:      -152.9842948
  entropy:           590.7686642
  heat_capacity:     291.3374489
  energy:            166.0307839

- temperature:       550.0000000
  free_energy:      -158.9188008
  entropy:           596.1170325
  heat_capacity:     291.6167245
  energy:            168.9455670

- temperature:       560.0000000
  free_energy:      -164.9063306
  entropy:           601.3739311
  heat_capacity:     291.8817329
  energy:            171.8630708

- temperature:       570.0000000
  free_energy:      -170.9459845
  entropy:           606.5423541
  heat_capacity:     292.1334206
  energy:            174.7831573

- temperature:       580.0000000
  free_energy:      -177.0368923
  entropy:           611.6251552
  heat_capacity:     292.3726574
  energy:            177.7056977

- temperature:       590.0000000
  free_energy:      -183.1782113
  entropy:           616.6250558
  heat_capacity:     292.6002440
  energy:            180.6305716

- temperature:       600.0000000
  free_energy:      -189.3691257
  entropy:           621.5446533
  heat_capacity:     292.8169183
  energy:            183.5576662

- temperature:       610.0000000
  free_energy:      -195.6088450
  entropy:           626.3864277
  heat_capacity:     293.0233612
  energy:            186.4868759

- temperature:       620.0000000
  free_energy:      -201.8966028
  entropy:           631.1527488
  heat_capacity:     293.2202019
  energy:            189.4181015

- temperature:       630.0000000
  free_energy:      -208.2316560
  entropy:           635.8458823
  heat_capacity:     293.4080220
  energy:            192.3512499

- temperature:       640.0000000
  free_energy:      -214.6132837
  entropy:           640.4679958
  heat_capacity:     293.5873605
  energy:            195.2862336

- temperature:       650.0000000
  free_energy:      -221.0407861
  entropy:           645.0211640
  heat_capacity:     293.7587166
  energy:            198.2229705

- temperature:       660.0000000
  free_energy:      -227.5134838
  entropy:           649.5073738
  heat_capacity:     293.9225540
  energy:            201.1613829

- temperature:       670.0000000
  free_energy:      -234.0307168
  entropy:           653.9285294
  heat_capacity:     294.0793032
  energy:            204.1013979

- temperature:       680.0000000
  free_energy:      -240.5918436
  entropy:           658.2864563
  heat_capacity:     294.2293645
  energy:            207.0429467

- temperature:       690.0000000
  free_energy:      -247.1962410
  entropy:           662.5829060
  heat_capacity:     294.3731107
  energy:            209.9859642

- temperature:       700.0000000
  free_energy:      -253.8433024
  entropy:           666.8195592
  heat_capacity:     294.5108890
  energy:            212.9303890

- temperature:       710.0000000
  free_energy:      -260.5324382
  entropy:           670.9980301
  heat_capacity:     294.6430233
  energy:            215.8761631

- temperature:       720.0000000
  free_energy:      -267.2630743
  entropy:           675.1198694
  heat_capacity:     294.7698159
  energy:            218.8232317

- temperature:       730.0000000
  free_energy:      -274.0346518
  entropy:           679.1865677
  heat_capacity:     294.8915492
  energy:            221.7715426

- temperature:       740.0000000
  free_energy:      -280.8466266
  entropy:           683.1995585
  heat_capacity:     295.0084874
  energy:            224.7210467

- temperature:       750.0000000
  free_energy:      -287.6984685
  entropy:           687.1602210
  heat_capacity:     295.1208778
  energy:            227.6716972

- temperature:       760.0000000
  free_energy:      -294.5896610
  entropy:           691.0698827
  heat_capacity:     295.2289518
  energy:            230.6234498

- temperature:       770.0000000
  free_energy:      -301.5197005
  entropy:           694.9298221
  heat_capacity:     295.3329267
  energy:            233.5762626

- temperature:       780.0000000
  free_energy:      -308.4880958
  entropy:           698.7412708
  heat_capacity:     295.4330060
  energy:            236.5300954

- temperature:       790.0000000
  free_energy:      -315.4943682
  entropy:           702.5054159
  heat_capacity:     295.5293811
  energy:            239.4849103

- temperature:       800.0000000
  free_energy:      -322.5380503
  entropy:           706.2234020
  heat_capacity:     295.6222317
  energy:            242.4406713

- temperature:       810.0000000
  free_energy:      -329.6186861
  entropy:           709.8963332
  heat_capacity:     295.7117268
  energy:            245.3973438

- temperature:       820.0000000
  free_energy:      -336.7358303
  entropy:           713.5252750
  heat_capacity:     295.7980253
  energy:            248.3548952

- temperature:       830.0000000
  free_energy:      -343.8890484
  entropy:           717.1112560
  heat_capacity:     295.8812772
  energy:            251.3132941

- temperature:       840.0000000
  free_energy:      -351.0779156
  entropy:           720.6552697
  heat_capacity:     295.9616234
  energy:            254.2725110

- temperature:       850.0000000
  free_energy:      -358.3020171
  entropy:           724.1582758
  heat_capacity:     296.0391972
  energy:            257.2325174

- temperature:       860.0000000
  free_energy:      -365.5609475
  entropy:           727.6212019
  heat_capacity:     296.1141241
  energy:            260.1932861

- temperature:       870.0000000
  free_energy:      -372.8543105
  entropy:           731.0449448
  heat_capacity:     296.1865226
  energy:            263.1547914

- temperature:       880.0000000
  free_energy:      -380.1817187
  entropy:           734.4303718
  heat_capacity:     296.2565049
  energy:            266.1170085

- temperature:       890.0000000
  free_energy:      -387.5427930
  entropy:           737.7783223
  heat_capacity:     296.3241769
  energy:            269.0799138

- temperature:       900.0000000
  free_energy:      -394.9371629
  entropy:           741.0896085
  heat_capacity:     296.3896387
  energy:            272.0434847

- temperature:       910.0000000
  free_energy:      -402.3644656
  entropy:           744.3650167
  heat_capacity:     296.4529853
  energy:            275.0076995

- temperature:       920.0000000
  free_energy:      -409.8243462
  entropy:           747.6053085
  heat_capacity:     296.5143065
  energy:            277.9725377

- temperature:       930.0000000
  free_energy:      -417.3164572
  entropy:           750.8112219
  heat_capacity:     296.5736873
  energy:            280.9379792

- temperature:       940.0000000
  free_energy:      -424.8404584
  entropy:           753.9834719
  heat_capacity:     296.6312086
  energy:            283.9040052

- temperature:       950.0000000
  free_energy:      -432.3960167
  entropy:           757.1227518
  heat_capacity:     296.6869469
  energy:            286.8705974

- temperature:       960.0000000
  free_energy:      -439.9828058
  entropy:           760.2297336
  heat_capacity:     296.7409750
  energy:            289.8377384

- temperature:       970.0000000
  free_energy:      -447.6005059
  entropy:           763.3050695
  heat_capacity:     296.7933618
  energy:            292.8054115

- temperature:       980.0000000
  free_energy:      -455.2488038
  entropy:           766.3493921
  heat_capacity:     296.8441729
  energy:            295.7736004

- temperature:       990.0000000
  free_energy:      -462.9273924
  entropy:           769.3633155
  heat_capacity:     296.8934708
  energy:            298.7422899

- temperature:      1000.0000000
  free_energy:      -470.6359708
  entropy:           772.3474358
  heat_capacity:     296.9413147
  energy:            301.7114650
