# Thermal properties / unit cell (natom)

unit:
  temperature:   K
  free_energy:   kJ/mol
  entropy:       J/K/mol
  heat_capacity: J/K/mol

natom: 4    
cutoff_frequency: 0.00000
num_modes: 141120
num_integrated_modes: 133459

zero_point_energy:       4.3937346

thermal_properties:
- temperature:         0.0000000
  free_energy:         4.3937346
  entropy:             0.0000000
  heat_capacity:       0.0000000
  energy:              4.3937346

- temperature:        10.0000000
  free_energy:         4.3764458
  entropy:             5.3301973
  heat_capacity:      10.7475186
  energy:              4.4297478

- temperature:        20.0000000
  free_energy:         4.2592092
  entropy:            18.8478947
  heat_capacity:      30.5247596
  energy:              4.6361671

- temperature:        30.0000000
  free_energy:         3.9922875
  entropy:            34.6488747
  heat_capacity:      47.9043253
  energy:              5.0317537

- temperature:        40.0000000
  free_energy:         3.5668852
  entropy:            50.2990824
  heat_capacity:      60.7569186
  energy:              5.5788485

- temperature:        50.0000000
  free_energy:         2.9899751
  entropy:            64.8704790
  heat_capacity:      69.6068566
  energy:              6.2334991

- temperature:        60.0000000
  free_energy:         2.2738781
  entropy:            78.1296074
  heat_capacity:      75.6469488
  energy:              6.9616546

- temperature:        70.0000000
  free_energy:         1.4316055
  entropy:            90.1244703
  heat_capacity:      79.8399142
  energy:              7.7403185

- temperature:        80.0000000
  free_energy:         0.4751498
  entropy:           100.9912533
  heat_capacity:      82.8243214
  energy:              8.5544501

- temperature:        90.0000000
  free_energy:        -0.5849572
  entropy:           110.8788539
  heat_capacity:      85.0043392
  energy:              9.3941396

- temperature:       100.0000000
  free_energy:        -1.7396192
  entropy:           119.9233795
  heat_capacity:      86.6359726
  energy:             10.2527187

- temperature:       110.0000000
  free_energy:        -2.9810064
  entropy:           128.2417614
  heat_capacity:      87.8842562
  energy:             11.1255873

- temperature:       120.0000000
  free_energy:        -4.3023629
  entropy:           135.9321304
  heat_capacity:      88.8580645
  energy:             12.0094928

- temperature:       130.0000000
  free_energy:        -5.6978297
  entropy:           143.0762392
  heat_capacity:      89.6309724
  energy:             12.9020814

- temperature:       140.0000000
  free_energy:        -7.1622951
  entropy:           149.7422063
  heat_capacity:      90.2538667
  energy:             13.8016138

- temperature:       150.0000000
  free_energy:        -8.6912709
  entropy:           155.9870039
  heat_capacity:      90.7627119
  energy:             14.7067797

- temperature:       160.0000000
  free_energy:       -10.2807918
  entropy:           161.8585427
  heat_capacity:      91.1834367
  energy:             15.6165750

- temperature:       170.0000000
  free_energy:       -11.9273334
  entropy:           167.3973649
  heat_capacity:      91.5350763
  energy:             16.5302186

- temperature:       180.0000000
  free_energy:       -13.6277457
  entropy:           172.6379983
  heat_capacity:      91.8318380
  energy:             17.4470940

- temperature:       190.0000000
  free_energy:       -15.3791985
  entropy:           177.6100375
  heat_capacity:      92.0844860
  energy:             18.3667086

- temperature:       200.0000000
  free_energy:       -17.1791366
  entropy:           182.3390051
  heat_capacity:      92.3012884
  energy:             19.2886645

- temperature:       210.0000000
  free_energy:       -19.0252425
  entropy:           186.8470427
  heat_capacity:      92.4886763
  energy:             20.2126365

- temperature:       220.0000000
  free_energy:       -20.9154056
  entropy:           191.1534661
  heat_capacity:      92.6517090
  energy:             21.1383569

- temperature:       230.0000000
  free_energy:       -22.8476964
  entropy:           195.2752149
  heat_capacity:      92.7944092
  energy:             22.0656030

- temperature:       240.0000000
  free_energy:       -24.8203443
  entropy:           199.2272185
  heat_capacity:      92.9200061
  energy:             22.9941882

- temperature:       250.0000000
  free_energy:       -26.8317192
  entropy:           203.0226963
  heat_capacity:      93.0311155
  energy:             23.9239549

- temperature:       260.0000000
  free_energy:       -28.8803158
  entropy:           206.6734044
  heat_capacity:      93.1298736
  energy:             24.8547693

- temperature:       270.0000000
  free_energy:       -30.9647398
  entropy:           210.1898404
  heat_capacity:      93.2180384
  energy:             25.7865171

- temperature:       280.0000000
  free_energy:       -33.0836965
  entropy:           213.5814149
  heat_capacity:      93.2970672
  energy:             26.7190997

- temperature:       290.0000000
  free_energy:       -35.2359802
  entropy:           216.8565941
  heat_capacity:      93.3681758
  energy:             27.6524320

- temperature:       300.0000000
  free_energy:       -37.4204660
  entropy:           220.0230206
  heat_capacity:      93.4323849
  energy:             28.5864402

- temperature:       310.0000000
  free_energy:       -39.6361013
  entropy:           223.0876159
  heat_capacity:      93.4905566
  energy:             29.5210596

- temperature:       320.0000000
  free_energy:       -41.8818999
  entropy:           226.0566673
  heat_capacity:      93.5434225
  energy:             30.4562337

- temperature:       330.0000000
  free_energy:       -44.1569353
  entropy:           228.9359024
  heat_capacity:      93.5916072
  energy:             31.3919125

- temperature:       340.0000000
  free_energy:       -46.4603360
  entropy:           231.7305530
  heat_capacity:      93.6356461
  energy:             32.3280520

- temperature:       350.0000000
  free_energy:       -48.7912804
  entropy:           234.4454102
  heat_capacity:      93.6760005
  energy:             33.2646131

- temperature:       360.0000000
  free_energy:       -51.1489929
  entropy:           237.0848722
  heat_capacity:      93.7130693
  energy:             34.2015611

- temperature:       370.0000000
  free_energy:       -53.5327401
  entropy:           239.6529859
  heat_capacity:      93.7471990
  energy:             35.1388647

- temperature:       380.0000000
  free_energy:       -55.9418273
  entropy:           242.1534830
  heat_capacity:      93.7786917
  energy:             36.0764963

- temperature:       390.0000000
  free_energy:       -58.3755959
  entropy:           244.5898116
  heat_capacity:      93.8078117
  energy:             37.0144306

- temperature:       400.0000000
  free_energy:       -60.8334203
  entropy:           246.9651641
  heat_capacity:      93.8347911
  energy:             37.9526454

- temperature:       410.0000000
  free_energy:       -63.3147058
  entropy:           249.2825020
  heat_capacity:      93.8598344
  energy:             38.8911200

- temperature:       420.0000000
  free_energy:       -65.8188862
  entropy:           251.5445770
  heat_capacity:      93.8831221
  energy:             39.8298362

- temperature:       430.0000000
  free_energy:       -68.3454217
  entropy:           253.7539508
  heat_capacity:      93.9048143
  energy:             40.7687771

- temperature:       440.0000000
  free_energy:       -70.8937975
  entropy:           255.9130116
  heat_capacity:      93.9250534
  energy:             41.7079276

- temperature:       450.0000000
  free_energy:       -73.4635217
  entropy:           258.0239899
  heat_capacity:      93.9439660
  energy:             42.6472738

- temperature:       460.0000000
  free_energy:       -76.0541240
  entropy:           260.0889715
  heat_capacity:      93.9616655
  energy:             43.5868029

- temperature:       470.0000000
  free_energy:       -78.6651543
  entropy:           262.1099100
  heat_capacity:      93.9782533
  energy:             44.5265034

- temperature:       480.0000000
  free_energy:       -81.2961815
  entropy:           264.0886376
  heat_capacity:      93.9938204
  energy:             45.4663646

- temperature:       490.0000000
  free_energy:       -83.9467921
  entropy:           266.0268750
  heat_capacity:      94.0084489
  energy:             46.4063767

- temperature:       500.0000000
  free_energy:       -86.6165894
  entropy:           267.9262402
  heat_capacity:      94.0222126
  energy:             47.3465307

- temperature:       510.0000000
  free_energy:       -89.3051924
  entropy:           269.7882562
  heat_capacity:      94.0351783
  energy:             48.2868183

- temperature:       520.0000000
  free_energy:       -92.0122348
  entropy:           271.6143589
  heat_capacity:      94.0474064
  energy:             49.2272318

- temperature:       530.0000000
  free_energy:       -94.7373644
  entropy:           273.4059029
  heat_capacity:      94.0589518
  energy:             50.1677641

- temperature:       540.0000000
  free_energy:       -97.4802420
  entropy:           275.1641679
  heat_capacity:      94.0698644
  energy:             51.1084087

- temperature:       550.0000000
  free_energy:      -100.2405409
  entropy:           276.8903642
  heat_capacity:      94.0801894
  energy:             52.0491595

- temperature:       560.0000000
  free_energy:      -103.0179462
  entropy:           278.5856373
  heat_capacity:      94.0899683
  energy:             52.9900107

- temperature:       570.0000000
  free_energy:      -105.8121542
  entropy:           280.2510724
  heat_capacity:      94.0992390
  energy:             53.9309571

- temperature:       580.0000000
  free_energy:      -108.6228716
  entropy:           281.8876991
  heat_capacity:      94.1080359
  energy:             54.8719939

- temperature:       590.0000000
  free_energy:      -111.4498154
  entropy:           283.4964945
  heat_capacity:      94.1163909
  energy:             55.8131164

- temperature:       600.0000000
  free_energy:      -114.2927118
  entropy:           285.0783869
  heat_capacity:      94.1243329
  energy:             56.7543203

- temperature:       610.0000000
  free_energy:      -117.1512964
  entropy:           286.6342592
  heat_capacity:      94.1318888
  energy:             57.6956017

- temperature:       620.0000000
  free_energy:      -120.0253131
  entropy:           288.1649516
  heat_capacity:      94.1390832
  energy:             58.6369569

- temperature:       630.0000000
  free_energy:      -122.9145142
  entropy:           289.6712642
  heat_capacity:      94.1459387
  energy:             59.5783823

- temperature:       640.0000000
  free_energy:      -125.8186596
  entropy:           291.1539598
  heat_capacity:      94.1524763
  energy:             60.5198746

- temperature:       650.0000000
  free_energy:      -128.7375171
  entropy:           292.6137659
  heat_capacity:      94.1587154
  energy:             61.4614308

- temperature:       660.0000000
  free_energy:      -131.6708610
  entropy:           294.0513772
  heat_capacity:      94.1646737
  energy:             62.4030480

- temperature:       670.0000000
  free_energy:      -134.6184728
  entropy:           295.4674571
  heat_capacity:      94.1703680
  energy:             63.3447234

- temperature:       680.0000000
  free_energy:      -137.5801405
  entropy:           296.8626397
  heat_capacity:      94.1758135
  energy:             64.2864545

- temperature:       690.0000000
  free_energy:      -140.5556580
  entropy:           298.2375317
  heat_capacity:      94.1810246
  energy:             65.2282389

- temperature:       700.0000000
  free_energy:      -143.5448254
  entropy:           299.5927138
  heat_capacity:      94.1860145
  energy:             66.1700743

- temperature:       710.0000000
  free_energy:      -146.5474484
  entropy:           300.9287421
  heat_capacity:      94.1907955
  energy:             67.1119585

- temperature:       720.0000000
  free_energy:      -149.5633382
  entropy:           302.2461496
  heat_capacity:      94.1953791
  energy:             68.0538895

- temperature:       730.0000000
  free_energy:      -152.5923111
  entropy:           303.5454473
  heat_capacity:      94.1997761
  energy:             68.9958654

- temperature:       740.0000000
  free_energy:      -155.6341884
  entropy:           304.8271255
  heat_capacity:      94.2039964
  energy:             69.9378845

- temperature:       750.0000000
  free_energy:      -158.6887964
  entropy:           306.0916550
  heat_capacity:      94.2080494
  energy:             70.8799448

- temperature:       760.0000000
  free_energy:      -161.7559658
  entropy:           307.3394878
  heat_capacity:      94.2119438
  energy:             71.8220449

- temperature:       770.0000000
  free_energy:      -164.8355320
  entropy:           308.5710586
  heat_capacity:      94.2156877
  energy:             72.7641832

- temperature:       780.0000000
  free_energy:      -167.9273342
  entropy:           309.7867851
  heat_capacity:      94.2192889
  energy:             73.7063582

- temperature:       790.0000000
  free_energy:      -171.0312162
  entropy:           310.9870692
  heat_capacity:      94.2227544
  energy:             74.6485685

- temperature:       800.0000000
  free_energy:      -174.1470254
  entropy:           312.1722978
  heat_capacity:      94.2260910
  energy:             75.5908129

- temperature:       810.0000000
  free_energy:      -177.2746132
  entropy:           313.3428434
  heat_capacity:      94.2293050
  energy:             76.5330899

- temperature:       820.0000000
  free_energy:      -180.4138345
  entropy:           314.4990647
  heat_capacity:      94.2324024
  energy:             77.4753986

- temperature:       830.0000000
  free_energy:      -183.5645479
  entropy:           315.6413078
  heat_capacity:      94.2353887
  energy:             78.4177376

- temperature:       840.0000000
  free_energy:      -186.7266152
  entropy:           316.7699062
  heat_capacity:      94.2382691
  energy:             79.3601060

- temperature:       850.0000000
  free_energy:      -189.8999016
  entropy:           317.8851815
  heat_capacity:      94.2410486
  energy:             80.3025027

- temperature:       860.0000000
  free_energy:      -193.0842755
  entropy:           318.9874443
  heat_capacity:      94.2437319
  energy:             81.2449266

- temperature:       870.0000000
  free_energy:      -196.2796081
  entropy:           320.0769944
  heat_capacity:      94.2463234
  energy:             82.1873770

- temperature:       880.0000000
  free_energy:      -199.4857739
  entropy:           321.1541213
  heat_capacity:      94.2488271
  energy:             83.1298528

- temperature:       890.0000000
  free_energy:      -202.7026501
  entropy:           322.2191049
  heat_capacity:      94.2512470
  energy:             84.0723532

- temperature:       900.0000000
  free_energy:      -205.9301165
  entropy:           323.2722155
  heat_capacity:      94.2535869
  energy:             85.0148775

- temperature:       910.0000000
  free_energy:      -209.1680557
  entropy:           324.3137147
  heat_capacity:      94.2558501
  energy:             85.9574247

- temperature:       920.0000000
  free_energy:      -212.4163529
  entropy:           325.3438556
  heat_capacity:      94.2580401
  energy:             86.8999942

- temperature:       930.0000000
  free_energy:      -215.6748958
  entropy:           326.3628828
  heat_capacity:      94.2601598
  energy:             87.8425853

- temperature:       940.0000000
  free_energy:      -218.9435743
  entropy:           327.3710335
  heat_capacity:      94.2622124
  energy:             88.7851972

- temperature:       950.0000000
  free_energy:      -222.2222809
  entropy:           328.3685371
  heat_capacity:      94.2642006
  energy:             89.7278293

- temperature:       960.0000000
  free_energy:      -225.5109103
  entropy:           329.3556160
  heat_capacity:      94.2661270
  energy:             90.6704810

- temperature:       970.0000000
  free_energy:      -228.8093592
  entropy:           330.3324855
  heat_capacity:      94.2679943
  energy:             91.6131517

- temperature:       980.0000000
  free_energy:      -232.1175267
  entropy:           331.2993545
  heat_capacity:      94.2698047
  energy:             92.5558407

- temperature:       990.0000000
  free_energy:      -235.4353137
  entropy:           332.2564255
  heat_capacity:      94.2715607
  energy:             93.4985476

- temperature:      1000.0000000
  free_energy:      -238.7626232
  entropy:           333.2038949
  heat_capacity:      94.2732643
  energy:             94.4412718
