phonopy:
  version: "2.37.1"
  frequency_unit_conversion_factor: 15.633302
  symmetry_tolerance: 1.00000e-05

space_group:
  type: "P1"
  number: 1
  Hall_symbol: "P 1"

primitive_matrix:
- [  1.000000000000000,  1.000000000000000, -0.000000000000000 ]
- [  0.000000000000000,  1.000000000000000, -0.000000000000000 ]
- [  0.000000000000000,  0.000000000000000,  1.000000000000000 ]

supercell_matrix:
- [   3,   0,   0 ]
- [   0,   3,   0 ]
- [   0,   0,   1 ]

primitive_cell:
  lattice:
  - [     4.741565498490030,     0.000000000000000,     0.000000000000000 ] # a
  - [     2.369811779434941,     4.109080987753623,     0.000000000000000 ] # b
  - [     0.001198908214938,     0.005141809801614,    13.104793898846014 ] # c
  points:
  - symbol: Li # 1
    coordinates: [  0.277226016771413,  0.190592381232045,  0.098082350726046 ]
    mass: 6.940000
  - symbol: Li # 2
    coordinates: [  0.277395975087229,  0.190591778801818,  0.318334343222913 ]
    mass: 6.940000
  - symbol: Li # 3
    coordinates: [  0.610978470168861,  0.523786262706582,  0.409757743985127 ]
    mass: 6.940000
  - symbol: Li # 4
    coordinates: [  0.277162852946499,  0.191601344491683,  0.788796216656517 ]
    mass: 6.940000
  - symbol: Li # 5
    coordinates: [  0.277404589601087,  0.191179525652405,  0.555683518874463 ]
    mass: 6.940000
  - symbol: Li # 6
    coordinates: [  0.943962922169167,  0.857237710884126,  0.243974742611520 ]
    mass: 6.940000
  - symbol: Li # 7
    coordinates: [  0.943821873209990,  0.858464457479191,  0.685887795344474 ]
    mass: 6.940000
  - symbol: Sn # 8
    coordinates: [  0.610511623923311,  0.524403377131600,  0.976639271215753 ]
    mass: 118.710000
  - symbol: Sn # 9
    coordinates: [  0.944270226933833,  0.857315014106675,  0.470774549462717 ]
    mass: 118.710000
  - symbol: Sn # 10
    coordinates: [  0.943783750149395,  0.858026849357196,  0.895650999639144 ]
    mass: 118.710000
  - symbol: Sn # 11
    coordinates: [  0.610620258796380,  0.523837026060275,  0.200229514087187 ]
    mass: 118.710000
  - symbol: Sn # 12
    coordinates: [  0.610552277900871,  0.524973492908163,  0.636426403758035 ]
    mass: 118.710000
  reciprocal_lattice: # without 2pi
  - [     0.210900809093211,    -0.121631874176002,     0.000028429081231 ] # a*
  - [     0.000000000000000,     0.243363419455669,    -0.000095486310214 ] # b*
  - [     0.000000000000000,     0.000000000000000,     0.076307953235957 ] # c*

unit_cell:
  lattice:
  - [     4.741565498490030,     0.000000000000000,     0.000000000000000 ] # a
  - [    -2.371753719055089,     4.109080987753623,     0.000000000000000 ] # b
  - [     0.001198908214938,     0.005141809801614,    13.104793898846014 ] # c
  points:
  - symbol: Li # 1
    coordinates: [  0.467818398003458,  0.190592381232045,  0.098082350726046 ]
    mass: 6.940000
    reduced_to: 1
  - symbol: Li # 2
    coordinates: [  0.467987753889046,  0.190591778801818,  0.318334343222913 ]
    mass: 6.940000
    reduced_to: 2
  - symbol: Li # 3
    coordinates: [  0.134764732875443,  0.523786262706582,  0.409757743985127 ]
    mass: 6.940000
    reduced_to: 3
  - symbol: Li # 4
    coordinates: [  0.468764197438181,  0.191601344491683,  0.788796216656517 ]
    mass: 6.940000
    reduced_to: 4
  - symbol: Li # 5
    coordinates: [  0.468584115253492,  0.191179525652405,  0.555683518874463 ]
    mass: 6.940000
    reduced_to: 5
  - symbol: Li # 6
    coordinates: [  0.801200633053292,  0.857237710884126,  0.243974742611520 ]
    mass: 6.940000
    reduced_to: 6
  - symbol: Li # 7
    coordinates: [  0.802286330689182,  0.858464457479191,  0.685887795344474 ]
    mass: 6.940000
    reduced_to: 7
  - symbol: Sn # 8
    coordinates: [  0.134915001054910,  0.524403377131600,  0.976639271215753 ]
    mass: 118.710000
    reduced_to: 8
  - symbol: Sn # 9
    coordinates: [  0.801585241040508,  0.857315014106675,  0.470774549462717 ]
    mass: 118.710000
    reduced_to: 9
  - symbol: Sn # 10
    coordinates: [  0.801810599506591,  0.858026849357196,  0.895650999639144 ]
    mass: 118.710000
    reduced_to: 10
  - symbol: Sn # 11
    coordinates: [  0.134457284856656,  0.523837026060275,  0.200229514087187 ]
    mass: 118.710000
    reduced_to: 11
  - symbol: Sn # 12
    coordinates: [  0.135525770809034,  0.524973492908163,  0.636426403758035 ]
    mass: 118.710000
    reduced_to: 12

supercell:
  lattice:
  - [    14.224696495470091,     0.000000000000000,     0.000000000000000 ] # a
  - [    -7.115261157165268,    12.327242963260868,     0.000000000000000 ] # b
  - [     0.001198908214938,     0.005141809801614,    13.104793898846014 ] # c
  points:
  - symbol: Li # 1
    coordinates: [  0.155939466001153,  0.063530793744015,  0.098082350726046 ]
    mass: 6.940000
    reduced_to: 1
  - symbol: Li # 2
    coordinates: [  0.489272799334486,  0.063530793744015,  0.098082350726046 ]
    mass: 6.940000
    reduced_to: 1
  - symbol: Li # 3
    coordinates: [  0.822606132667819,  0.063530793744015,  0.098082350726046 ]
    mass: 6.940000
    reduced_to: 1
  - symbol: Li # 4
    coordinates: [  0.155939466001153,  0.396864127077348,  0.098082350726046 ]
    mass: 6.940000
    reduced_to: 1
  - symbol: Li # 5
    coordinates: [  0.489272799334486,  0.396864127077348,  0.098082350726046 ]
    mass: 6.940000
    reduced_to: 1
  - symbol: Li # 6
    coordinates: [  0.822606132667819,  0.396864127077348,  0.098082350726046 ]
    mass: 6.940000
    reduced_to: 1
  - symbol: Li # 7
    coordinates: [  0.155939466001153,  0.730197460410682,  0.098082350726046 ]
    mass: 6.940000
    reduced_to: 1
  - symbol: Li # 8
    coordinates: [  0.489272799334486,  0.730197460410682,  0.098082350726046 ]
    mass: 6.940000
    reduced_to: 1
  - symbol: Li # 9
    coordinates: [  0.822606132667819,  0.730197460410682,  0.098082350726046 ]
    mass: 6.940000
    reduced_to: 1
  - symbol: Li # 10
    coordinates: [  0.155995917963015,  0.063530592933939,  0.318334343222913 ]
    mass: 6.940000
    reduced_to: 10
  - symbol: Li # 11
    coordinates: [  0.489329251296349,  0.063530592933939,  0.318334343222913 ]
    mass: 6.940000
    reduced_to: 10
  - symbol: Li # 12
    coordinates: [  0.822662584629682,  0.063530592933939,  0.318334343222913 ]
    mass: 6.940000
    reduced_to: 10
  - symbol: Li # 13
    coordinates: [  0.155995917963015,  0.396863926267273,  0.318334343222913 ]
    mass: 6.940000
    reduced_to: 10
  - symbol: Li # 14
    coordinates: [  0.489329251296349,  0.396863926267273,  0.318334343222913 ]
    mass: 6.940000
    reduced_to: 10
  - symbol: Li # 15
    coordinates: [  0.822662584629682,  0.396863926267273,  0.318334343222913 ]
    mass: 6.940000
    reduced_to: 10
  - symbol: Li # 16
    coordinates: [  0.155995917963015,  0.730197259600606,  0.318334343222913 ]
    mass: 6.940000
    reduced_to: 10
  - symbol: Li # 17
    coordinates: [  0.489329251296349,  0.730197259600606,  0.318334343222913 ]
    mass: 6.940000
    reduced_to: 10
  - symbol: Li # 18
    coordinates: [  0.822662584629682,  0.730197259600606,  0.318334343222913 ]
    mass: 6.940000
    reduced_to: 10
  - symbol: Li # 19
    coordinates: [  0.044921577625148,  0.174595420902194,  0.409757743985127 ]
    mass: 6.940000
    reduced_to: 19
  - symbol: Li # 20
    coordinates: [  0.378254910958481,  0.174595420902194,  0.409757743985127 ]
    mass: 6.940000
    reduced_to: 19
  - symbol: Li # 21
    coordinates: [  0.711588244291814,  0.174595420902194,  0.409757743985127 ]
    mass: 6.940000
    reduced_to: 19
  - symbol: Li # 22
    coordinates: [  0.044921577625148,  0.507928754235527,  0.409757743985127 ]
    mass: 6.940000
    reduced_to: 19
  - symbol: Li # 23
    coordinates: [  0.378254910958481,  0.507928754235527,  0.409757743985127 ]
    mass: 6.940000
    reduced_to: 19
  - symbol: Li # 24
    coordinates: [  0.711588244291814,  0.507928754235527,  0.409757743985127 ]
    mass: 6.940000
    reduced_to: 19
  - symbol: Li # 25
    coordinates: [  0.044921577625148,  0.841262087568861,  0.409757743985127 ]
    mass: 6.940000
    reduced_to: 19
  - symbol: Li # 26
    coordinates: [  0.378254910958481,  0.841262087568861,  0.409757743985127 ]
    mass: 6.940000
    reduced_to: 19
  - symbol: Li # 27
    coordinates: [  0.711588244291814,  0.841262087568861,  0.409757743985127 ]
    mass: 6.940000
    reduced_to: 19
  - symbol: Li # 28
    coordinates: [  0.156254732479394,  0.063867114830561,  0.788796216656517 ]
    mass: 6.940000
    reduced_to: 28
  - symbol: Li # 29
    coordinates: [  0.489588065812727,  0.063867114830561,  0.788796216656517 ]
    mass: 6.940000
    reduced_to: 28
  - symbol: Li # 30
    coordinates: [  0.822921399146060,  0.063867114830561,  0.788796216656517 ]
    mass: 6.940000
    reduced_to: 28
  - symbol: Li # 31
    coordinates: [  0.156254732479394,  0.397200448163894,  0.788796216656517 ]
    mass: 6.940000
    reduced_to: 28
  - symbol: Li # 32
    coordinates: [  0.489588065812727,  0.397200448163894,  0.788796216656517 ]
    mass: 6.940000
    reduced_to: 28
  - symbol: Li # 33
    coordinates: [  0.822921399146060,  0.397200448163894,  0.788796216656517 ]
    mass: 6.940000
    reduced_to: 28
  - symbol: Li # 34
    coordinates: [  0.156254732479394,  0.730533781497227,  0.788796216656517 ]
    mass: 6.940000
    reduced_to: 28
  - symbol: Li # 35
    coordinates: [  0.489588065812727,  0.730533781497227,  0.788796216656517 ]
    mass: 6.940000
    reduced_to: 28
  - symbol: Li # 36
    coordinates: [  0.822921399146060,  0.730533781497227,  0.788796216656517 ]
    mass: 6.940000
    reduced_to: 28
  - symbol: Li # 37
    coordinates: [  0.156194705084497,  0.063726508550802,  0.555683518874463 ]
    mass: 6.940000
    reduced_to: 37
  - symbol: Li # 38
    coordinates: [  0.489528038417831,  0.063726508550802,  0.555683518874463 ]
    mass: 6.940000
    reduced_to: 37
  - symbol: Li # 39
    coordinates: [  0.822861371751164,  0.063726508550802,  0.555683518874463 ]
    mass: 6.940000
    reduced_to: 37
  - symbol: Li # 40
    coordinates: [  0.156194705084497,  0.397059841884135,  0.555683518874463 ]
    mass: 6.940000
    reduced_to: 37
  - symbol: Li # 41
    coordinates: [  0.489528038417831,  0.397059841884135,  0.555683518874463 ]
    mass: 6.940000
    reduced_to: 37
  - symbol: Li # 42
    coordinates: [  0.822861371751164,  0.397059841884135,  0.555683518874463 ]
    mass: 6.940000
    reduced_to: 37
  - symbol: Li # 43
    coordinates: [  0.156194705084497,  0.730393175217468,  0.555683518874463 ]
    mass: 6.940000
    reduced_to: 37
  - symbol: Li # 44
    coordinates: [  0.489528038417831,  0.730393175217468,  0.555683518874463 ]
    mass: 6.940000
    reduced_to: 37
  - symbol: Li # 45
    coordinates: [  0.822861371751164,  0.730393175217468,  0.555683518874463 ]
    mass: 6.940000
    reduced_to: 37
  - symbol: Li # 46
    coordinates: [  0.267066877684431,  0.285745903628042,  0.243974742611520 ]
    mass: 6.940000
    reduced_to: 46
  - symbol: Li # 47
    coordinates: [  0.600400211017764,  0.285745903628042,  0.243974742611520 ]
    mass: 6.940000
    reduced_to: 46
  - symbol: Li # 48
    coordinates: [  0.933733544351097,  0.285745903628042,  0.243974742611520 ]
    mass: 6.940000
    reduced_to: 46
  - symbol: Li # 49
    coordinates: [  0.267066877684431,  0.619079236961375,  0.243974742611520 ]
    mass: 6.940000
    reduced_to: 46
  - symbol: Li # 50
    coordinates: [  0.600400211017764,  0.619079236961375,  0.243974742611520 ]
    mass: 6.940000
    reduced_to: 46
  - symbol: Li # 51
    coordinates: [  0.933733544351097,  0.619079236961375,  0.243974742611520 ]
    mass: 6.940000
    reduced_to: 46
  - symbol: Li # 52
    coordinates: [  0.267066877684431,  0.952412570294709,  0.243974742611520 ]
    mass: 6.940000
    reduced_to: 46
  - symbol: Li # 53
    coordinates: [  0.600400211017764,  0.952412570294709,  0.243974742611520 ]
    mass: 6.940000
    reduced_to: 46
  - symbol: Li # 54
    coordinates: [  0.933733544351097,  0.952412570294709,  0.243974742611520 ]
    mass: 6.940000
    reduced_to: 46
  - symbol: Li # 55
    coordinates: [  0.267428776896394,  0.286154819159730,  0.685887795344474 ]
    mass: 6.940000
    reduced_to: 55
  - symbol: Li # 56
    coordinates: [  0.600762110229727,  0.286154819159730,  0.685887795344474 ]
    mass: 6.940000
    reduced_to: 55
  - symbol: Li # 57
    coordinates: [  0.934095443563060,  0.286154819159730,  0.685887795344474 ]
    mass: 6.940000
    reduced_to: 55
  - symbol: Li # 58
    coordinates: [  0.267428776896394,  0.619488152493064,  0.685887795344474 ]
    mass: 6.940000
    reduced_to: 55
  - symbol: Li # 59
    coordinates: [  0.600762110229727,  0.619488152493064,  0.685887795344474 ]
    mass: 6.940000
    reduced_to: 55
  - symbol: Li # 60
    coordinates: [  0.934095443563060,  0.619488152493064,  0.685887795344474 ]
    mass: 6.940000
    reduced_to: 55
  - symbol: Li # 61
    coordinates: [  0.267428776896394,  0.952821485826397,  0.685887795344474 ]
    mass: 6.940000
    reduced_to: 55
  - symbol: Li # 62
    coordinates: [  0.600762110229727,  0.952821485826397,  0.685887795344474 ]
    mass: 6.940000
    reduced_to: 55
  - symbol: Li # 63
    coordinates: [  0.934095443563060,  0.952821485826397,  0.685887795344474 ]
    mass: 6.940000
    reduced_to: 55
  - symbol: Sn # 64
    coordinates: [  0.044971667018303,  0.174801125710533,  0.976639271215753 ]
    mass: 118.710000
    reduced_to: 64
  - symbol: Sn # 65
    coordinates: [  0.378305000351637,  0.174801125710533,  0.976639271215753 ]
    mass: 118.710000
    reduced_to: 64
  - symbol: Sn # 66
    coordinates: [  0.711638333684970,  0.174801125710533,  0.976639271215753 ]
    mass: 118.710000
    reduced_to: 64
  - symbol: Sn # 67
    coordinates: [  0.044971667018303,  0.508134459043867,  0.976639271215753 ]
    mass: 118.710000
    reduced_to: 64
  - symbol: Sn # 68
    coordinates: [  0.378305000351637,  0.508134459043867,  0.976639271215753 ]
    mass: 118.710000
    reduced_to: 64
  - symbol: Sn # 69
    coordinates: [  0.711638333684970,  0.508134459043867,  0.976639271215753 ]
    mass: 118.710000
    reduced_to: 64
  - symbol: Sn # 70
    coordinates: [  0.044971667018303,  0.841467792377200,  0.976639271215753 ]
    mass: 118.710000
    reduced_to: 64
  - symbol: Sn # 71
    coordinates: [  0.378305000351637,  0.841467792377200,  0.976639271215753 ]
    mass: 118.710000
    reduced_to: 64
  - symbol: Sn # 72
    coordinates: [  0.711638333684970,  0.841467792377200,  0.976639271215753 ]
    mass: 118.710000
    reduced_to: 64
  - symbol: Sn # 73
    coordinates: [  0.267195080346836,  0.285771671368892,  0.470774549462717 ]
    mass: 118.710000
    reduced_to: 73
  - symbol: Sn # 74
    coordinates: [  0.600528413680169,  0.285771671368892,  0.470774549462717 ]
    mass: 118.710000
    reduced_to: 73
  - symbol: Sn # 75
    coordinates: [  0.933861747013503,  0.285771671368892,  0.470774549462717 ]
    mass: 118.710000
    reduced_to: 73
  - symbol: Sn # 76
    coordinates: [  0.267195080346836,  0.619105004702225,  0.470774549462717 ]
    mass: 118.710000
    reduced_to: 73
  - symbol: Sn # 77
    coordinates: [  0.600528413680169,  0.619105004702225,  0.470774549462717 ]
    mass: 118.710000
    reduced_to: 73
  - symbol: Sn # 78
    coordinates: [  0.933861747013503,  0.619105004702225,  0.470774549462717 ]
    mass: 118.710000
    reduced_to: 73
  - symbol: Sn # 79
    coordinates: [  0.267195080346836,  0.952438338035558,  0.470774549462717 ]
    mass: 118.710000
    reduced_to: 73
  - symbol: Sn # 80
    coordinates: [  0.600528413680169,  0.952438338035558,  0.470774549462717 ]
    mass: 118.710000
    reduced_to: 73
  - symbol: Sn # 81
    coordinates: [  0.933861747013503,  0.952438338035558,  0.470774549462717 ]
    mass: 118.710000
    reduced_to: 73
  - symbol: Sn # 82
    coordinates: [  0.267270199835530,  0.286008949785732,  0.895650999639144 ]
    mass: 118.710000
    reduced_to: 82
  - symbol: Sn # 83
    coordinates: [  0.600603533168864,  0.286008949785732,  0.895650999639144 ]
    mass: 118.710000
    reduced_to: 82
  - symbol: Sn # 84
    coordinates: [  0.933936866502197,  0.286008949785732,  0.895650999639144 ]
    mass: 118.710000
    reduced_to: 82
  - symbol: Sn # 85
    coordinates: [  0.267270199835530,  0.619342283119065,  0.895650999639144 ]
    mass: 118.710000
    reduced_to: 82
  - symbol: Sn # 86
    coordinates: [  0.600603533168864,  0.619342283119065,  0.895650999639144 ]
    mass: 118.710000
    reduced_to: 82
  - symbol: Sn # 87
    coordinates: [  0.933936866502197,  0.619342283119065,  0.895650999639144 ]
    mass: 118.710000
    reduced_to: 82
  - symbol: Sn # 88
    coordinates: [  0.267270199835530,  0.952675616452399,  0.895650999639144 ]
    mass: 118.710000
    reduced_to: 82
  - symbol: Sn # 89
    coordinates: [  0.600603533168864,  0.952675616452399,  0.895650999639144 ]
    mass: 118.710000
    reduced_to: 82
  - symbol: Sn # 90
    coordinates: [  0.933936866502197,  0.952675616452399,  0.895650999639144 ]
    mass: 118.710000
    reduced_to: 82
  - symbol: Sn # 91
    coordinates: [  0.044819094952219,  0.174612342020092,  0.200229514087187 ]
    mass: 118.710000
    reduced_to: 91
  - symbol: Sn # 92
    coordinates: [  0.378152428285552,  0.174612342020092,  0.200229514087187 ]
    mass: 118.710000
    reduced_to: 91
  - symbol: Sn # 93
    coordinates: [  0.711485761618885,  0.174612342020092,  0.200229514087187 ]
    mass: 118.710000
    reduced_to: 91
  - symbol: Sn # 94
    coordinates: [  0.044819094952219,  0.507945675353425,  0.200229514087187 ]
    mass: 118.710000
    reduced_to: 91
  - symbol: Sn # 95
    coordinates: [  0.378152428285552,  0.507945675353425,  0.200229514087187 ]
    mass: 118.710000
    reduced_to: 91
  - symbol: Sn # 96
    coordinates: [  0.711485761618885,  0.507945675353425,  0.200229514087187 ]
    mass: 118.710000
    reduced_to: 91
  - symbol: Sn # 97
    coordinates: [  0.044819094952219,  0.841279008686758,  0.200229514087187 ]
    mass: 118.710000
    reduced_to: 91
  - symbol: Sn # 98
    coordinates: [  0.378152428285552,  0.841279008686758,  0.200229514087187 ]
    mass: 118.710000
    reduced_to: 91
  - symbol: Sn # 99
    coordinates: [  0.711485761618885,  0.841279008686758,  0.200229514087187 ]
    mass: 118.710000
    reduced_to: 91
  - symbol: Sn # 100
    coordinates: [  0.045175256936345,  0.174991164302721,  0.636426403758035 ]
    mass: 118.710000
    reduced_to: 100
  - symbol: Sn # 101
    coordinates: [  0.378508590269678,  0.174991164302721,  0.636426403758035 ]
    mass: 118.710000
    reduced_to: 100
  - symbol: Sn # 102
    coordinates: [  0.711841923603011,  0.174991164302721,  0.636426403758035 ]
    mass: 118.710000
    reduced_to: 100
  - symbol: Sn # 103
    coordinates: [  0.045175256936345,  0.508324497636054,  0.636426403758035 ]
    mass: 118.710000
    reduced_to: 100
  - symbol: Sn # 104
    coordinates: [  0.378508590269678,  0.508324497636054,  0.636426403758035 ]
    mass: 118.710000
    reduced_to: 100
  - symbol: Sn # 105
    coordinates: [  0.711841923603011,  0.508324497636054,  0.636426403758035 ]
    mass: 118.710000
    reduced_to: 100
  - symbol: Sn # 106
    coordinates: [  0.045175256936345,  0.841657830969388,  0.636426403758035 ]
    mass: 118.710000
    reduced_to: 100
  - symbol: Sn # 107
    coordinates: [  0.378508590269678,  0.841657830969388,  0.636426403758035 ]
    mass: 118.710000
    reduced_to: 100
  - symbol: Sn # 108
    coordinates: [  0.711841923603011,  0.841657830969388,  0.636426403758035 ]
    mass: 118.710000
    reduced_to: 100

displacements:
- atom:    1
  displacement:
    [   0.0100000000000000,  0.0000000000000000,  0.0000000000000000 ]
  forces:
  - [  -0.0119871366769075, -0.0002156037371606,  0.0305520892143250 ]
  - [  -0.0001899120397866,  0.0000159204937518,  0.0306209474802017 ]
  - [  -0.0001778992009349, -0.0001341124152532,  0.0305906683206558 ]
  - [   0.0001904723467305,  0.0002272466663271,  0.0305540412664413 ]
  - [   0.0001897524343804, -0.0003545295912772,  0.0306591391563416 ]
  - [   0.0002469669561833, -0.0000586546957493,  0.0306073278188705 ]
  - [   0.0001886505633593,  0.0000821575522423,  0.0305679738521576 ]
  - [   0.0002473420463502, -0.0000590793788433,  0.0306050628423691 ]
  - [   0.0001898868940771, -0.0001966096460819,  0.0306432843208313 ]
  - [  -0.0001674008817645,  0.0001925367978401, -0.0007080137729645 ]
  - [   0.0000425402249675,  0.0003409266646486, -0.0007287114858627 ]
  - [   0.0000436535628978,  0.0000510872050654, -0.0006765387952328 ]
  - [   0.0001308255305048,  0.0003927383513656, -0.0005901940166950 ]
  - [   0.0001312451495323, -0.0000090904650278, -0.0008200034499168 ]
  - [   0.0000445214318461,  0.0001962233218364, -0.0007030107080936 ]
  - [   0.0001349106023554,  0.0001009449479170, -0.0006156787276268 ]
  - [   0.0000760198890930,  0.0001958643551916, -0.0007033087313175 ]
  - [   0.0001342927280348,  0.0002914676442742, -0.0007907114923000 ]
  - [  -0.0002313798177056,  0.0000390167115256,  0.0156830102205276 ]
  - [  -0.0002335702592973,  0.0002011005999520,  0.0156997367739677 ]
  - [  -0.0002991464862134,  0.0001208018511534,  0.0156980752944946 ]
  - [  -0.0003076900320593,  0.0001146061695181,  0.0156955644488335 ]
  - [  -0.0003369003825355,  0.0001206671586260,  0.0156981721520424 ]
  - [  -0.0003080400638282,  0.0001269708154723,  0.0157007202506065 ]
  - [  -0.0003712436009664,  0.0001209647743963,  0.0156971588730812 ]
  - [  -0.0003354630898684,  0.0001206600572914,  0.0156974866986275 ]
  - [  -0.0003331028565299,  0.0001216154778376,  0.0156984850764275 ]
  - [  -0.0001437068567611, -0.0003622751682997, -0.0318940132856369 ]
  - [  -0.0001065605320036, -0.0004563927650452, -0.0319137871265411 ]
  - [  -0.0001073240709957, -0.0002657659351826, -0.0318785235285759 ]
  - [  -0.0002945046871901, -0.0003788750618696, -0.0318933725357056 ]
  - [  -0.0002951920032501, -0.0003390163183212, -0.0319002047181129 ]
  - [   0.0002230610698462, -0.0003600921481848, -0.0318953245878220 ]
  - [  -0.0001363568007946, -0.0004676915705204, -0.0319093167781830 ]
  - [  -0.0001219990663230, -0.0003610327839851, -0.0318953022360802 ]
  - [  -0.0001363102346659, -0.0002579521387815, -0.0318812280893326 ]
  - [  -0.0002110296627507,  0.0000045871747716, -0.0121488589793444 ]
  - [  -0.0001877855247585, -0.0000023774045985, -0.0121347457170486 ]
  - [  -0.0001863974321168,  0.0000080829759099, -0.0121645312756300 ]
  - [  -0.0001925095566548,  0.0000020904699340, -0.0121600851416588 ]
  - [  -0.0001919282367453,  0.0000064668711275, -0.0121376309543848 ]
  - [  -0.0001813236740418,  0.0000025884946808, -0.0121490284800529 ]
  - [  -0.0001866723177955,  0.0000022714957595, -0.0121447481215000 ]
  - [  -0.0001925348769873,  0.0000025825574994, -0.0121487379074097 ]
  - [  -0.0001873158616945,  0.0000024414621294, -0.0121533051133156 ]
  - [   0.0001075700565707, -0.0000856574624777,  0.0487547442317009 ]
  - [  -0.0010654410580173, -0.0007811933755875,  0.0484580993652344 ]
  - [  -0.0010647623566911,  0.0006060916930437,  0.0490511171519756 ]
  - [   0.0001723331952235, -0.0001299788709730,  0.0487546883523464 ]
  - [   0.0001731803495204, -0.0000476303976029,  0.0487541556358337 ]
  - [   0.0001342831674265, -0.0000917996512726,  0.0487544201314449 ]
  - [   0.0006821005372331, -0.0004207261372358,  0.0491273477673531 ]
  - [   0.0002437457442284, -0.0000888901995495,  0.0487536191940308 ]
  - [   0.0006694517796859,  0.0002345362445340,  0.0483943074941635 ]
  - [   0.0001392388221575,  0.0001743473112583, -0.0450821444392204 ]
  - [   0.0000964656210272,  0.0001609970349818, -0.0451096780598164 ]
  - [   0.0000957839074545,  0.0001861045602709, -0.0450517274439335 ]
  - [   0.0001065608958015,  0.0001708236522973, -0.0450813360512257 ]
  - [   0.0001083321258193,  0.0001738183200359, -0.0450810603797436 ]
  - [   0.0001166022047983,  0.0001731107477099, -0.0450806096196175 ]
  - [   0.0000849333591759,  0.0002057412639260, -0.0452535450458527 ]
  - [   0.0001099565997720,  0.0001729677896947, -0.0450820289552212 ]
  - [   0.0000841899309307,  0.0001429156400263, -0.0449101403355598 ]
  - [   0.0017887370195240, -0.0016127439448610,  0.0018418505787849 ]
  - [   0.0018387446179986,  0.0014754827134311, -0.0024125501513481 ]
  - [   0.0004834725405090, -0.0000998477626126, -0.0002634674310684 ]
  - [   0.0000478731672047, -0.0003417743719183, -0.0003694593906403 ]
  - [   0.0001126459828811, -0.0000924116611714, -0.0002672895789146 ]
  - [   0.0000490985985380,  0.0001576089416631, -0.0001606792211533 ]
  - [  -0.0008547288016416, -0.0000884581240825, -0.0002604499459267 ]
  - [   0.0000625335815130, -0.0000654507748550, -0.0002571567893028 ]
  - [   0.0000609265844105, -0.0001275064132642, -0.0002754926681519 ]
  - [  -0.0004432900168467, -0.0001433342695236, -0.0179499909281731 ]
  - [  -0.0003414112143219, -0.0001258850097656, -0.0178789347410202 ]
  - [  -0.0003401729045436, -0.0001620948314667, -0.0180227458477020 ]
  - [  -0.0003767853486352, -0.0001292438246310, -0.0179490260779858 ]
  - [  -0.0003764295543078, -0.0001551397144794, -0.0179479531943798 ]
  - [  -0.0003732219629455, -0.0001429612748325, -0.0179493501782417 ]
  - [  -0.0003373683430254, -0.0002033719792962, -0.0179622061550617 ]
  - [  -0.0003997525200248, -0.0001430087722838, -0.0179494544863701 ]
  - [  -0.0003419360145926, -0.0000807200558484, -0.0179387070238590 ]
  - [   0.0002910711336881,  0.0000189706915990, -0.0322225540876389 ]
  - [   0.0001420267071808, -0.0000063492916524, -0.0323094427585602 ]
  - [   0.0001528318389319,  0.0000545385992154, -0.0321587100625038 ]
  - [   0.0001132894976763,  0.0000861793523654, -0.0322357416152954 ]
  - [   0.0001092959428206, -0.0000293256016448, -0.0322276614606380 ]
  - [   0.0002040096151177,  0.0000292472541332, -0.0322313942015171 ]
  - [   0.0005936513771303, -0.0001454552402720, -0.0319538749754429 ]
  - [   0.0000093313283287,  0.0000263365218416, -0.0322314798831940 ]
  - [   0.0005812818999402,  0.0001966137788258, -0.0325091332197189 ]
  - [   0.0050832647830248, -0.0024882033467293,  0.0105879865586758 ]
  - [   0.0052428012713790,  0.0025940444320440,  0.0160465091466904 ]
  - [   0.0003075608983636, -0.0000020628795028,  0.0132663324475288 ]
  - [   0.0002217367291451, -0.0000570788979530,  0.0132978670299053 ]
  - [   0.0002157902345061, -0.0000057760626078,  0.0132660195231438 ]
  - [   0.0002213381230831,  0.0000453088432550,  0.0132345855236053 ]
  - [   0.0007647634483874,  0.0000122087076306,  0.0132610388100147 ]
  - [   0.0001868037506938,  0.0000128671526909,  0.0133046507835388 ]
  - [   0.0001852568238974, -0.0000216197222471,  0.0132301039993763 ]
  - [   0.0000899654114619,  0.0001774728298187,  0.0319142267107964 ]
  - [   0.0000922423787415,  0.0002835541963577,  0.0319871678948402 ]
  - [  -0.0001002807402983,  0.0002304839435965,  0.0319516770541668 ]
  - [   0.0000231266021729,  0.0002997788542416,  0.0318727791309357 ]
  - [   0.0000387154286727,  0.0002298094186699,  0.0319504067301750 ]
  - [   0.0000195592874661,  0.0001604056742508,  0.0320287346839905 ]
  - [  -0.0000012902310118,  0.0002324142842554,  0.0319508053362370 ]
  - [   0.0000413608504459,  0.0002313842414878,  0.0319319926202297 ]
  - [   0.0000411678920500,  0.0002340256469324,  0.0319699868559837 ]
- atom:    1
  displacement:
    [  -0.0100000000000000,  0.0000000000000000,  0.0000000000000000 ]
  forces:
  - [   0.0124512882903218, -0.0002210044767708,  0.0305669903755188 ]
  - [   0.0006441477453336, -0.0001340382732451,  0.0305917561054230 ]
  - [   0.0006559374160133,  0.0000155224261107,  0.0306209474802017 ]
  - [   0.0002766682300717, -0.0003549759276211,  0.0306598544120789 ]
  - [   0.0002760573988780,  0.0002264932263643,  0.0305538177490234 ]
  - [   0.0002180575393140, -0.0000584735535085,  0.0306073576211929 ]
  - [   0.0002748011611402, -0.0001955125480890,  0.0306435376405716 ]
  - [   0.0002189441584051, -0.0000589452683926,  0.0306050032377243 ]
  - [   0.0002761420328170,  0.0000825040042400,  0.0305680781602859 ]
  - [   0.0002907733723987,  0.0001931805454660, -0.0007109008729458 ]
  - [   0.0000808797049103,  0.0000509663368575, -0.0006758831441402 ]
  - [   0.0000814406957943,  0.0003422427398618, -0.0007296539843082 ]
  - [  -0.0000075528005254, -0.0000091526308097, -0.0008200816810131 ]
  - [  -0.0000072851107689,  0.0003925274941139, -0.0005905032157898 ]
  - [   0.0000796632812126,  0.0001962882815860, -0.0007027909159660 ]
  - [  -0.0000109181492007,  0.0002913262578659, -0.0007910206913948 ]
  - [   0.0000483996554976,  0.0001959085348062, -0.0007033944129944 ]
  - [  -0.0000115950460895,  0.0001010963460431, -0.0006152018904686 ]
  - [  -0.0004004508955404,  0.0001996182836592,  0.0156991630792618 ]
  - [  -0.0004040156491101,  0.0000396095565520,  0.0156834870576859 ]
  - [  -0.0003370752965566,  0.0001209125621244,  0.0156980603933334 ]
  - [  -0.0003263916587457,  0.0001255939132534,  0.0157004371285439 ]
  - [  -0.0002990753855556,  0.0001205310691148,  0.0156982541084290 ]
  - [  -0.0003267599968240,  0.0001159826060757,  0.0156960263848305 ]
  - [  -0.0002618893340696,  0.0001216039527208,  0.0156959444284439 ]
  - [  -0.0003008942003362,  0.0001227407483384,  0.0156972631812096 ]
  - [  -0.0002978589618579,  0.0001201408449560,  0.0156977623701096 ]
  - [  -0.0000740030955058, -0.0003616660833359, -0.0318935513496399 ]
  - [  -0.0001116837811423, -0.0002670958638191, -0.0318781733512878 ]
  - [  -0.0001125308335759, -0.0004558488726616, -0.0319133996963501 ]
  - [   0.0000749174505472, -0.0003392007201910, -0.0319009572267532 ]
  - [   0.0000742971897125, -0.0003781393170357, -0.0318932458758354 ]
  - [  -0.0004428233951330, -0.0003595724701881, -0.0318946242332458 ]
  - [  -0.0000849659554660, -0.0002576075494289, -0.0318816453218460 ]