# Tetrahedron method
       -2.2482065119        0.0000000000
       -2.1948691039        0.0000000000
       -2.1415316958        0.0000000000
       -2.0881942878        0.0000000000
       -2.0348568798        0.0000000000
       -1.9815194717        0.0000000000
       -1.9281820637        0.0000000000
       -1.8748446556        0.0000000000
       -1.8215072476        0.0000000000
       -1.7681698396        0.0000000000
       -1.7148324315        0.0000000000
       -1.6614950235        0.0000000000
       -1.6081576154        0.0000000000
       -1.5548202074        0.0000000000
       -1.5014827994        0.0000000000
       -1.4481453913        0.0000000000
       -1.3948079833        0.0000000000
       -1.3414705753        0.5734278953
       -1.2881331672        1.1863745778
       -1.2347957592        1.5002372979
       -1.1814583511        1.7621166525
       -1.1281209431        2.0024395742
       -1.0747835351        2.3262957331
       -1.0214461270        3.5758645608
       -0.9681087190        2.1694592053
       -0.9147713109        1.8004290924
       -0.8614339029        1.6659280542
       -0.8080964949        2.3790360436
       -0.7547590868        3.7730606352
       -0.7014216788        4.8650940326
       -0.6480842707        2.6164272221
       -0.5947468627        1.4063098570
       -0.5414094547        1.2666742098
       -0.4880720466        1.0919243587
       -0.4347346386        0.9665350809
       -0.3813972305        0.8001352197
       -0.3280598225        0.6974624156
       -0.2747224145        0.6570996828
       -0.2213850064        0.5893502777
       -0.1680475984        0.5231186656
       -0.1147101904        0.4978228993
       -0.0613727823        0.4906809284
       -0.0080353743        0.5010413653
        0.0453020338        0.5093408470
        0.0986394418        0.5225789376
        0.1519768498        0.5548276314
        0.2053142579        0.6677692830
        0.2586516659        0.7984009587
        0.3119890740        0.7997630469
        0.3653264820        0.7028951063
        0.4186638900        0.7985604018
        0.4720012981        0.9985669857
        0.5253387061        1.3175371386
        0.5786761142        0.9955130217
        0.6320135222        1.0905200493
        0.6853509302        1.1735817054
        0.7386883383        1.1075772579
        0.7920257463        0.9327089244
        0.8453631544        0.7721713546
        0.8987005624        0.5408380839
        0.9520379704        0.8812953950
        1.0053753785        1.7770913961
        1.0587127865        2.0282980056
        1.1120501945        1.9621074044
        1.1653876026        2.3270414963
        1.2187250106        2.5910608128
        1.2720624187        2.8390644040
        1.3253998267        3.1403153414
        1.3787372347        3.5324859215
        1.4320746428        3.5848300176
        1.4854120508        3.8701043780
        1.5387494589        4.1834048734
        1.5920868669        5.1122889275
        1.6454242749        6.1074069059
        1.6987616830        5.4278102163
        1.7520990910        3.9576693004
        1.8054364991        3.0425868784
        1.8587739071        1.3667416779
        1.9121113151        0.0000000000
        1.9654487232        0.0000000000
        2.0187861312        0.0220208741
        2.0721235393        0.1772408623
        2.1254609473        0.3701965165
        2.1787983553        0.6592878584
        2.2321357634        1.0394089497
        2.2854731714        1.5634390657
        2.3388105794        2.3222788563
        2.3921479875        3.7542254365
        2.4454853955        6.5913472017
        2.4988228036        9.5633680063
        2.5521602116       19.1204422822
        2.6054976196        9.7102213251
        2.6588350277        0.0000000000
        2.7121724357        0.0000000000
        2.7655098438        0.0000000000
        2.8188472518        0.0000000000
        2.8721846598        0.0000000000
        2.9255220679        0.0000000000
        2.9788594759        0.0000000000
        3.0321968840        0.0000000000
        3.0855342920        0.0000000000
        3.1388717000        0.0000000000
        3.1922091081        0.0000000000
        3.2455465161        0.0000000000
        3.2988839242        0.0000000000
        3.3522213322        0.0000000000
        3.4055587402        0.0000000000
        3.4588961483        0.0000000000
        3.5122335563        0.0000000000
        3.5655709643        0.0000000000
        3.6189083724        0.0000000000
        3.6722457804        0.0000000000
        3.7255831885        0.0000000000
        3.7789205965        0.0000000000
        3.8322580045        0.0000000000
        3.8855954126        0.0000000000
        3.9389328206        0.0000000000
        3.9922702287        0.0000000000
        4.0456076367        0.0000000000
        4.0989450447        0.0000000000
        4.1522824528        0.0000000000
        4.2056198608        0.0000000000
        4.2589572689        0.0000000000
        4.3122946769        0.0000000000
        4.3656320849        0.0000000000
        4.4189694930        0.0000000000
        4.4723069010        0.0000000000
        4.5256443091        0.0000000000
        4.5789817171        0.0000000000
        4.6323191251        0.0000000000
        4.6856565332        0.0000000000
        4.7389939412        0.0000000000
        4.7923313492        0.0000000000
        4.8456687573        0.0000000000
        4.8990061653        0.0000000000
        4.9523435734        0.0000000000
        5.0056809814        0.0000000000
        5.0590183894        0.0000000000
        5.1123557975        0.0000000000
        5.1656932055        0.0000000000
        5.2190306136        0.0000000000
        5.2723680216        0.0000000000
        5.3257054296        0.1014208716
        5.3790428377        0.6303568336
        5.4323802457        0.9463476829
        5.4857176538        1.2241240492
        5.5390550618        1.5510558271
        5.5923924698        1.9778508295
        5.6457298779        3.0628907618
        5.6990672859        3.0505084593
        5.7524046940        2.9158781230
        5.8057421020        2.8407463513
        5.8590795100        2.7488850405
        5.9124169181        2.7185619569
        5.9657543261        2.6682401966
        6.0190917341        2.1546320626
        6.0724291422        1.2779369014
        6.1257665502        1.2261993739
        6.1791039583        1.2011161994
        6.2324413663        1.1530791901
        6.2857787743        1.1172483824
        6.3391161824        1.0555502689
        6.3924535904        1.0216235075
        6.4457909985        0.9576135490
        6.4991284065        0.8981996016
        6.5524658145        0.8248287680
        6.6058032226        0.7678882187
        6.6591406306        0.5241770870
        6.7124780387        0.3817543830
        6.7658154467        0.6001598315
        6.8191528547        0.9194967720
        6.8724902628        1.3078646454
        6.9258276708        2.1364451015
        6.9791650789        2.3289913180
        7.0325024869        2.4263003420
        7.0858398949        1.5181293221
        7.1391773030        1.1210144555
        7.1925147110        0.7664574037
        7.2458521190        0.5800920253
        7.2991895271        0.4905179345
        7.3525269351        0.4082799158
        7.4058643432        0.3234905190
        7.4592017512        0.2311090546
        7.5125391592        0.1071752639
        7.5658765673        0.0000000000
        7.6192139753        0.0000000000
        7.6725513834        0.0000000000
        7.7258887914        0.0000000000
        7.7792261994        0.0000000000
        7.8325636075        0.0000000000
        7.8859010155        0.0000000000
        7.9392384236        0.0000000000
        7.9925758316        0.0000000000
        8.0459132396        0.0000000000
        8.0992506477        0.0000000000
        8.1525880557        0.0000000000
        8.2059254638        0.0000000000
        8.2592628718        0.0000000000
        8.3126002798        0.0000000000
        8.3659376879        0.0000000000
        8.4192750959        0.0000000000
