phonopy:
  version: "2.37.1"
  frequency_unit_conversion_factor: 15.633302
  symmetry_tolerance: 1.00000e-05

space_group:
  type: "Cm"
  number: 8
  Hall_symbol: "C -2y"

primitive_matrix:
- [  0.000000000000000,  1.000000000000000,  0.000000000000000 ]
- [  1.000000000000000,  0.000000000000000,  0.000000000000000 ]
- [  0.000000000000000,  0.000000000000000, -1.000000000000000 ]

supercell_matrix:
- [   2,   0,   0 ]
- [   0,   2,   0 ]
- [   0,   0,   2 ]

primitive_cell:
  lattice:
  - [     3.986581544518749,     4.102977676009518,     0.000000000000000 ] # a
  - [     5.720773715288986,     0.000000000000000,     0.000000000000000 ] # b
  - [    -1.790908096565104,    -0.756957119877719,    -5.631410283293333 ] # c
  points:
  - symbol: Li # 1
    coordinates: [  0.980595728105743,  0.980595726602412,  0.960155583852024 ]
    mass: 6.940000
  - symbol: Li # 2
    coordinates: [  0.297378134562719,  0.297378131047398,  0.595163227341262 ]
    mass: 6.940000
  - symbol: Li # 3
    coordinates: [  0.638564400905397,  0.638564398184276,  0.778070085041495 ]
    mass: 6.940000
  - symbol: Sn # 4
    coordinates: [  0.638915829505778,  0.638915823698858,  0.278085220759080 ]
    mass: 118.710000
  - symbol: Sn # 5
    coordinates: [  0.970832088552343,  0.970832098440443,  0.461752733857548 ]
    mass: 118.710000
  - symbol: Sn # 6
    coordinates: [  0.307047151624874,  0.307047155443822,  0.093439815797765 ]
    mass: 118.710000
  reciprocal_lattice: # without 2pi
  - [     0.000000000000000,     0.243725430398291,    -0.032760834418791 ] # a*
  - [     0.174801530311794,    -0.169842638620541,    -0.032760866653962 ] # b*
  - [     0.000000000000000,     0.000000000000000,    -0.177575411787469 ] # c*

unit_cell:
  lattice:
  - [     5.720773715288985,     0.000000000000000,     0.000000000000000 ] # a
  - [     3.986581544518749,     4.102977676009518,     0.000000000000000 ] # b
  - [     1.790908096565105,     0.756957119877719,     5.631410283293333 ] # c
  points:
  - symbol: Li # 1
    coordinates: [  0.980595726602413,  0.980595728105743,  0.039844416147976 ]
    mass: 6.940000
    reduced_to: 1
  - symbol: Li # 2
    coordinates: [  0.297378131047398,  0.297378134562719,  0.404836772658738 ]
    mass: 6.940000
    reduced_to: 2
  - symbol: Li # 3
    coordinates: [  0.638564398184276,  0.638564400905397,  0.221929914958505 ]
    mass: 6.940000
    reduced_to: 3
  - symbol: Sn # 4
    coordinates: [  0.638915823698858,  0.638915829505778,  0.721914779240920 ]
    mass: 118.710000
    reduced_to: 4
  - symbol: Sn # 5
    coordinates: [  0.970832098440443,  0.970832088552343,  0.538247266142452 ]
    mass: 118.710000
    reduced_to: 5
  - symbol: Sn # 6
    coordinates: [  0.307047155443822,  0.307047151624874,  0.906560184202235 ]
    mass: 118.710000
    reduced_to: 6

supercell:
  lattice:
  - [    11.441547430577970,     0.000000000000000,     0.000000000000000 ] # a
  - [     7.973163089037499,     8.205955352019036,     0.000000000000000 ] # b
  - [     3.581816193130209,     1.513914239755439,    11.262820566586665 ] # c
  points:
  - symbol: Li # 1
    coordinates: [  0.490297863301206,  0.490297864052871,  0.019922208073988 ]
    mass: 6.940000
    reduced_to: 1
  - symbol: Li # 2
    coordinates: [  0.990297863301206,  0.490297864052871,  0.019922208073988 ]
    mass: 6.940000
    reduced_to: 1
  - symbol: Li # 3
    coordinates: [  0.490297863301206,  0.990297864052871,  0.019922208073988 ]
    mass: 6.940000
    reduced_to: 1
  - symbol: Li # 4
    coordinates: [  0.990297863301206,  0.990297864052871,  0.019922208073988 ]
    mass: 6.940000
    reduced_to: 1
  - symbol: Li # 5
    coordinates: [  0.490297863301206,  0.490297864052871,  0.519922208073988 ]
    mass: 6.940000
    reduced_to: 1
  - symbol: Li # 6
    coordinates: [  0.990297863301206,  0.490297864052871,  0.519922208073988 ]
    mass: 6.940000
    reduced_to: 1
  - symbol: Li # 7
    coordinates: [  0.490297863301206,  0.990297864052871,  0.519922208073988 ]
    mass: 6.940000
    reduced_to: 1
  - symbol: Li # 8
    coordinates: [  0.990297863301206,  0.990297864052871,  0.519922208073988 ]
    mass: 6.940000
    reduced_to: 1
  - symbol: Li # 9
    coordinates: [  0.148689065523699,  0.148689067281360,  0.202418386329369 ]
    mass: 6.940000
    reduced_to: 9
  - symbol: Li # 10
    coordinates: [  0.648689065523699,  0.148689067281360,  0.202418386329369 ]
    mass: 6.940000
    reduced_to: 9
  - symbol: Li # 11
    coordinates: [  0.148689065523699,  0.648689067281360,  0.202418386329369 ]
    mass: 6.940000
    reduced_to: 9
  - symbol: Li # 12
    coordinates: [  0.648689065523699,  0.648689067281360,  0.202418386329369 ]
    mass: 6.940000
    reduced_to: 9
  - symbol: Li # 13
    coordinates: [  0.148689065523699,  0.148689067281360,  0.702418386329369 ]
    mass: 6.940000
    reduced_to: 9
  - symbol: Li # 14
    coordinates: [  0.648689065523699,  0.148689067281360,  0.702418386329369 ]
    mass: 6.940000
    reduced_to: 9
  - symbol: Li # 15
    coordinates: [  0.148689065523699,  0.648689067281360,  0.702418386329369 ]
    mass: 6.940000
    reduced_to: 9
  - symbol: Li # 16
    coordinates: [  0.648689065523699,  0.648689067281360,  0.702418386329369 ]
    mass: 6.940000
    reduced_to: 9
  - symbol: Li # 17
    coordinates: [  0.319282199092138,  0.319282200452699,  0.110964957479252 ]
    mass: 6.940000
    reduced_to: 17
  - symbol: Li # 18
    coordinates: [  0.819282199092138,  0.319282200452699,  0.110964957479252 ]
    mass: 6.940000
    reduced_to: 17
  - symbol: Li # 19
    coordinates: [  0.319282199092138,  0.819282200452699,  0.110964957479252 ]
    mass: 6.940000
    reduced_to: 17
  - symbol: Li # 20
    coordinates: [  0.819282199092138,  0.819282200452699,  0.110964957479252 ]
    mass: 6.940000
    reduced_to: 17
  - symbol: Li # 21
    coordinates: [  0.319282199092138,  0.319282200452699,  0.610964957479252 ]
    mass: 6.940000
    reduced_to: 17
  - symbol: Li # 22
    coordinates: [  0.819282199092138,  0.319282200452699,  0.610964957479252 ]
    mass: 6.940000
    reduced_to: 17
  - symbol: Li # 23
    coordinates: [  0.319282199092138,  0.819282200452699,  0.610964957479252 ]
    mass: 6.940000
    reduced_to: 17
  - symbol: Li # 24
    coordinates: [  0.819282199092138,  0.819282200452699,  0.610964957479252 ]
    mass: 6.940000
    reduced_to: 17
  - symbol: Sn # 25
    coordinates: [  0.319457911849429,  0.319457914752889,  0.360957389620460 ]
    mass: 118.710000
    reduced_to: 25
  - symbol: Sn # 26
    coordinates: [  0.819457911849429,  0.319457914752889,  0.360957389620460 ]
    mass: 118.710000
    reduced_to: 25
  - symbol: Sn # 27
    coordinates: [  0.319457911849429,  0.819457914752889,  0.360957389620460 ]
    mass: 118.710000
    reduced_to: 25
  - symbol: Sn # 28
    coordinates: [  0.819457911849429,  0.819457914752889,  0.360957389620460 ]
    mass: 118.710000
    reduced_to: 25
  - symbol: Sn # 29
    coordinates: [  0.319457911849429,  0.319457914752889,  0.860957389620460 ]
    mass: 118.710000
    reduced_to: 25
  - symbol: Sn # 30
    coordinates: [  0.819457911849429,  0.319457914752889,  0.860957389620460 ]
    mass: 118.710000
    reduced_to: 25
  - symbol: Sn # 31
    coordinates: [  0.319457911849429,  0.819457914752889,  0.860957389620460 ]
    mass: 118.710000
    reduced_to: 25
  - symbol: Sn # 32
    coordinates: [  0.819457911849429,  0.819457914752889,  0.860957389620460 ]
    mass: 118.710000
    reduced_to: 25
  - symbol: Sn # 33
    coordinates: [  0.485416049220222,  0.485416044276171,  0.269123633071226 ]
    mass: 118.710000
    reduced_to: 33
  - symbol: Sn # 34
    coordinates: [  0.985416049220222,  0.485416044276171,  0.269123633071226 ]
    mass: 118.710000
    reduced_to: 33
  - symbol: Sn # 35
    coordinates: [  0.485416049220222,  0.985416044276171,  0.269123633071226 ]
    mass: 118.710000
    reduced_to: 33
  - symbol: Sn # 36
    coordinates: [  0.985416049220222,  0.985416044276171,  0.269123633071226 ]
    mass: 118.710000
    reduced_to: 33
  - symbol: Sn # 37
    coordinates: [  0.485416049220222,  0.485416044276171,  0.769123633071226 ]
    mass: 118.710000
    reduced_to: 33
  - symbol: Sn # 38
    coordinates: [  0.985416049220222,  0.485416044276171,  0.769123633071226 ]
    mass: 118.710000
    reduced_to: 33
  - symbol: Sn # 39
    coordinates: [  0.485416049220222,  0.985416044276171,  0.769123633071226 ]
    mass: 118.710000
    reduced_to: 33
  - symbol: Sn # 40
    coordinates: [  0.985416049220222,  0.985416044276171,  0.769123633071226 ]
    mass: 118.710000
    reduced_to: 33
  - symbol: Sn # 41
    coordinates: [  0.153523577721911,  0.153523575812437,  0.453280092101118 ]
    mass: 118.710000
    reduced_to: 41
  - symbol: Sn # 42
    coordinates: [  0.653523577721911,  0.153523575812437,  0.453280092101118 ]
    mass: 118.710000
    reduced_to: 41
  - symbol: Sn # 43
    coordinates: [  0.153523577721911,  0.653523575812437,  0.453280092101118 ]
    mass: 118.710000
    reduced_to: 41
  - symbol: Sn # 44
    coordinates: [  0.653523577721911,  0.653523575812437,  0.453280092101118 ]
    mass: 118.710000
    reduced_to: 41
  - symbol: Sn # 45
    coordinates: [  0.153523577721911,  0.153523575812437,  0.953280092101118 ]
    mass: 118.710000
    reduced_to: 41
  - symbol: Sn # 46
    coordinates: [  0.653523577721911,  0.153523575812437,  0.953280092101118 ]
    mass: 118.710000
    reduced_to: 41
  - symbol: Sn # 47
    coordinates: [  0.153523577721911,  0.653523575812437,  0.953280092101118 ]
    mass: 118.710000
    reduced_to: 41
  - symbol: Sn # 48
    coordinates: [  0.653523577721911,  0.653523575812437,  0.953280092101118 ]
    mass: 118.710000
    reduced_to: 41

displacements:
- atom:    1
  displacement:
    [   0.0100000000000000,  0.0000000000000000,  0.0000000000000000 ]
  forces:
  - [  -0.0101242698729038,  0.0018847014289349, -0.0427616573870182 ]
  - [   0.0029365457594395,  0.0013740016147494, -0.0388229452073574 ]
  - [   0.0031050201505423,  0.0012088844086975, -0.0387924537062645 ]
  - [   0.0031785096507519,  0.0013488407712430, -0.0383664704859257 ]
  - [   0.0030259713530540,  0.0012112656841055, -0.0393963158130646 ]
  - [   0.0031477706506848,  0.0013282641302794, -0.0387808941304684 ]
  - [   0.0031428891234100,  0.0013309097848833, -0.0387567654252052 ]
  - [   0.0031335470266640,  0.0013381511671469, -0.0388429686427116 ]
  - [  -0.0066475635394454, -0.0026522083207965,  0.0360476598143578 ]
  - [  -0.0060632498934865, -0.0027175620198250,  0.0361019894480705 ]
  - [  -0.0058417553082108, -0.0029304991476238,  0.0354355499148369 ]
  - [  -0.0064864708110690, -0.0027473045047373,  0.0359832830727100 ]
  - [  -0.0064520407468081, -0.0021768645383418,  0.0365576297044754 ]
  - [  -0.0062397113069892, -0.0026664608158171,  0.0362544730305672 ]
  - [  -0.0062567875720561, -0.0026511359028518,  0.0361471138894558 ]
  - [  -0.0062625808641315, -0.0027355246711522,  0.0362778455018997 ]
  - [   0.0048905005678535,  0.0019908808171749,  0.0026223864406347 ]
  - [   0.0057394597679377,  0.0010524527169764,  0.0036800978705287 ]
  - [   0.0043009566143155,  0.0022902111522853,  0.0029515675269067 ]
  - [   0.0043053058907390,  0.0015937322750688,  0.0025780317373574 ]
  - [   0.0039910576306283,  0.0016695618396625,  0.0026457472704351 ]
  - [   0.0040124477818608,  0.0016294126398861,  0.0029083960689604 ]
  - [   0.0039375042542815,  0.0016448070527986,  0.0026961471885443 ]
  - [   0.0039709890261292,  0.0016950634308159,  0.0028630257584155 ]
  - [   0.0013457164168358,  0.0005511739291251,  0.0024389636237174 ]
  - [   0.0013470535632223,  0.0005791154108010,  0.0024842177517712 ]
  - [   0.0013852135743946,  0.0005770645802841,  0.0024197055026889 ]
  - [   0.0011547792237252,  0.0006991053232923,  0.0025081932544708 ]
  - [   0.0017065657302737,  0.0006222072988749,  0.0025470135733485 ]
  - [   0.0036513779778033, -0.0021286720875651, -0.0006755910580978 ]
  - [   0.0011494550853968,  0.0005878768861294,  0.0026409504935145 ]
  - [   0.0021188855171204,  0.0007348693907261,  0.0024988711811602 ]
  - [   0.0271154921501875,  0.0111005185171962, -0.0346224308013916 ]
  - [   0.0261659715324640,  0.0110930996015668, -0.0376964285969734 ]
  - [   0.0261694453656673,  0.0110171334818006, -0.0376439392566681 ]
  - [   0.0260760597884655,  0.0110035035759211, -0.0376666262745857 ]
  - [   0.0265883915126324,  0.0114058153703809, -0.0348992422223091 ]
  - [   0.0257273986935616,  0.0111527666449547, -0.0375771597027779 ]
  - [   0.0259910598397255,  0.0107534527778625, -0.0375523865222931 ]
  - [   0.0258474759757519,  0.0113165453076363, -0.0376677364110947 ]
  - [  -0.0282700862735510, -0.0119490865617990,  0.0351080894470215 ]
  - [  -0.0282997749745846, -0.0118565950542688,  0.0349957048892975 ]
  - [  -0.0282432902604342, -0.0120915947481990,  0.0349303632974625 ]
  - [  -0.0282816514372826, -0.0119515713304281,  0.0350689589977264 ]
  - [  -0.0283808857202530, -0.0120211215689778,  0.0351030528545380 ]
  - [  -0.0277622621506453, -0.0105644995346665,  0.0350771173834801 ]
  - [  -0.0248570553958416, -0.0131640415638685,  0.0355734154582024 ]
  - [  -0.0258893575519323, -0.0107806492596865,  0.0353763923048973 ]
- atom:    1
  displacement:
    [  -0.0100000000000000,  0.0000000000000000,  0.0000000000000000 ]
  forces:
  - [   0.0163979437202215,  0.0007644169963896, -0.0347017087042332 ]
  - [   0.0033492050133646,  0.0012828739127144, -0.0387384518980980 ]
  - [   0.0031787052284926,  0.0014474262716249, -0.0387667194008827 ]
  - [   0.0031033705454320,  0.0013060519704595, -0.0391963757574558 ]
  - [   0.0032591628842056,  0.0014441703679040, -0.0381628200411797 ]
  - [   0.0031376061961055,  0.0013279030099511, -0.0387784838676453 ]
  - [   0.0031385775655508,  0.0013252309290692, -0.0388061068952084 ]
  - [   0.0031515562441200,  0.0013162097893655, -0.0387176759541035 ]
  - [  -0.0058612795546651, -0.0026322286576033,  0.0363482795655727 ]
  - [  -0.0064462376758456, -0.0025678849779069,  0.0362908765673637 ]
  - [  -0.0066707292571664, -0.0023477221839130,  0.0369835421442986 ]
  - [  -0.0060173482634127, -0.0025370679795742,  0.0364184305071831 ]
  - [  -0.0060548121109605, -0.0031080020125955,  0.0358399227261543 ]
  - [  -0.0062710111960769, -0.0026216669939458,  0.0361396297812462 ]
  - [  -0.0062555181793869, -0.0026356205344200,  0.0362483486533165 ]
  - [  -0.0062502059154212, -0.0025533926673234,  0.0361237674951553 ]
  - [   0.0030838041566312,  0.0013816626742482,  0.0028491090051830 ]
  - [   0.0022809479851276,  0.0023061097599566,  0.0017989641055465 ]
  - [   0.0036832108162344,  0.0010822551557794,  0.0025131914298981 ]
  - [   0.0036759530194104,  0.0017893763724715,  0.0028931945562363 ]
  - [   0.0039954287931323,  0.0017058089142665,  0.0028222068212926 ]
  - [   0.0039708358235657,  0.0017473709303886,  0.0025575915351510 ]
  - [   0.0040492215193808,  0.0017290565883741,  0.0027735931798816 ]
  - [   0.0040175933390856,  0.0016805089544505,  0.0026043253019452 ]
  - [   0.0013876005541533,  0.0006078913575038,  0.0023826572578400 ]
  - [   0.0013856223085895,  0.0005781060899608,  0.0023457533679903 ]
  - [   0.0013507949188352,  0.0005794039461762,  0.0024062045849860 ]
  - [   0.0015792073681951,  0.0004542352689896,  0.0023152602370828 ]
  - [   0.0010271919891238,  0.0005235634744167,  0.0022691860795021 ]
  - [  -0.0008750854176469,  0.0032314765267074,  0.0054413755424321 ]
  - [   0.0015903487801552,  0.0005428465083241,  0.0021980023011565 ]
  - [   0.0006270310259424,  0.0004203756689094,  0.0023295881692320 ]
  - [   0.0249303095042706,  0.0109032029286027, -0.0406729504466057 ]
  - [   0.0258985087275505,  0.0109096020460129, -0.0375999212265015 ]
  - [   0.0258913841098547,  0.0109837688505650, -0.0376519709825516 ]
  - [   0.0259882919490337,  0.0109984073787928, -0.0376294255256653 ]
  - [   0.0254929438233376,  0.0105915386229753, -0.0404276028275490 ]
  - [   0.0263273734599352,  0.0108462041243911, -0.0377247929573059 ]
  - [   0.0260626114904881,  0.0112524656578898, -0.0377457067370415 ]
  - [   0.0262164194136858,  0.0106921810656786, -0.0376351028680801 ]
  - [  -0.0282874088734388, -0.0119536202400923,  0.0350600928068161 ]
  - [  -0.0282564461231232, -0.0120461583137512,  0.0351788923144341 ]
  - [  -0.0283149816095829, -0.0118109453469515,  0.0352390110492706 ]
  - [  -0.0282753352075815, -0.0119523387402296,  0.0351012647151947 ]
  - [  -0.0281777847558260, -0.0118864439427853,  0.0350640937685966 ]
  - [  -0.0287832673639059, -0.0133503768593073,  0.0350895151495934 ]
  - [  -0.0318481549620628, -0.0106662083417177,  0.0345609486103058 ]
  - [  -0.0305831991136074, -0.0130819967016578,  0.0347690731287003 ]
- atom:    1
  displacement:
    [   0.0030060847847250,  0.0012705717759152,  0.0094524653730809 ]
  forces:
  - [  -0.0046042371541262, -0.0019460712792352, -0.0639728754758835 ]
  - [   0.0030461670830846,  0.0013676683884114, -0.0387664400041103 ]
  - [   0.0031041887123138,  0.0012313877232373, -0.0387666821479797 ]
  - [   0.0035466458648443,  0.0014997300459072, -0.0382724739611149 ]
  - [   0.0025149681605399,  0.0010626792209223, -0.0408184751868248 ]
  - [   0.0031430530361831,  0.0013614482013509, -0.0387903563678265 ]
  - [   0.0031648394651711,  0.0013049917761236, -0.0387914963066578 ]
  - [   0.0030820423271507,  0.0013015003642067, -0.0388236120343208 ]
  - [  -0.0065169092267752, -0.0027546796482056,  0.0358994863927364 ]
  - [  -0.0062949229031801, -0.0035063624382019,  0.0371783226728439 ]
  - [  -0.0069000255316496, -0.0020713941194117,  0.0371789224445820 ]
  - [  -0.0065487194806337, -0.0027671316638589,  0.0363834016025066 ]
  - [  -0.0059130671434104, -0.0024995170533657,  0.0359940193593502 ]
  - [  -0.0061990162357688, -0.0027635344304144,  0.0363091491162777 ]
  - [  -0.0063016563653946, -0.0025197733193636,  0.0363088063895702 ]
  - [  -0.0061986194923520, -0.0026192304212600,  0.0358239151537418 ]
  - [   0.0038287553470582,  0.0016184537671506,  0.0032059755176306 ]
  - [   0.0054705920629203,  0.0008763456717134,  0.0033147023059428 ]
  - [   0.0044410629197955,  0.0033129586372524,  0.0033154841512442 ]
  - [   0.0039849216118455,  0.0016850382089615,  0.0025074828881770 ]
  - [   0.0039580753073096,  0.0016726398607716,  0.0025781774893403 ]
  - [   0.0039276927709579,  0.0018418824765831,  0.0029353452846408 ]
  - [   0.0040580295026302,  0.0015336583601311,  0.0029352181591094 ]
  - [   0.0039151539094746,  0.0016545619582757,  0.0029519638046622 ]
  - [   0.0012772954069078,  0.0005417489446700,  0.0021735574118793 ]
  - [   0.0012228030245751,  0.0006705444538966,  0.0023151789791882 ]
  - [   0.0013330460060388,  0.0004119018558413,  0.0023138800170273 ]
  - [   0.0014155823737383,  0.0005987117765471,  0.0019947674591094 ]
  - [   0.0012399852275848,  0.0005214288830757,  0.0024345172569156 ]
  - [  -0.0011095214867964,  0.0032486296258867,  0.0050701508298516 ]
  - [   0.0015586800873280, -0.0030612861737609,  0.0050690378993750 ]
  - [   0.0016748970374465,  0.0007093549356796,  0.0025443253107369 ]
  - [   0.0296172685921192,  0.0125180575996637, -0.0262453705072403 ]
  - [   0.0260541904717684,  0.0110753830522299, -0.0376654118299484 ]
  - [   0.0260986257344484,  0.0109643582254648, -0.0376645550131798 ]
  - [   0.0259960126131773,  0.0109852068126202, -0.0376739948987961 ]
  - [   0.0288111809641123,  0.0121780987828970, -0.0302038043737411 ]
  - [   0.0261132530868053,  0.0108447875827551, -0.0376375690102577 ]
  - [   0.0259757600724697,  0.0111727174371481, -0.0376360341906548 ]
  - [   0.0256239995360374,  0.0108304955065250, -0.0380430668592453 ]
  - [  -0.0282039754092693, -0.0119203012436628,  0.0352037772536278 ]
  - [  -0.0282899532467127, -0.0116869835183024,  0.0350221544504166 ]
  - [  -0.0280970577150583, -0.0121445404365659,  0.0350205749273300 ]
  - [  -0.0282355770468712, -0.0119334775954485,  0.0350207239389420 ]
  - [  -0.0281007308512926, -0.0118772769346833,  0.0347527861595154 ]
  - [  -0.0274795424193144, -0.0096122529357672,  0.0354856327176094 ]
  - [  -0.0260429326444864, -0.0130103621631861,  0.0354857221245766 ]
  - [  -0.0281623098999262, -0.0119022186845541,  0.0350450649857521 ]
- atom:    1
  displacement:
    [  -0.0030060847847250, -0.0012705717759152, -0.0094524653730809 ]
  forces:
  - [   0.0108462134376168,  0.0045842141844332, -0.0137681141495705 ]
  - [   0.0032385499216616,  0.0012878978159279, -0.0387927442789078 ]
  - [   0.0031811399385333,  0.0014249649830163, -0.0387931205332279 ]
  - [   0.0027340995147824,  0.0011565180029720, -0.0392928905785084 ]
  - [   0.0037804327439517,  0.0015974134439602, -0.0367187894880772 ]
  - [   0.0031425775960088,  0.0012943625915796, -0.0387708693742752 ]
  - [   0.0031161415390670,  0.0013513579033315, -0.0387720614671707 ]
  - [   0.0032030462753028,  0.0013527456903830, -0.0387359075248241 ]
  - [  -0.0059919273480773, -0.0025328984484076,  0.0364986062049866 ]
  - [  -0.0062144286930561, -0.0017917079385370,  0.0352267958223820 ]
  - [  -0.0056143263354897, -0.0032085753045976,  0.0352277159690857 ]
  - [  -0.0059652626514435, -0.0025204592384398,  0.0360201857984066 ]
  - [  -0.0065962434746325, -0.0027885213494301,  0.0363991484045982 ]
  - [  -0.0063119754195213, -0.0025247279554605,  0.0360824950039387 ]
  - [  -0.0062091476283967, -0.0027673714794219,  0.0360821522772312 ]
  - [  -0.0063148960471153, -0.0026683704927564,  0.0365769229829311 ]
  - [   0.0041697463020682,  0.0017628069035709,  0.0022575459443033 ]
  - [   0.0025268238969147,  0.0024916250258684,  0.0021609128452837 ]
  - [   0.0035480586811900,  0.0000759410613682,  0.0021618886385113 ]
  - [   0.0040044668130577,  0.0016931935679168,  0.0029621662106365 ]
  - [   0.0040277424268425,  0.0017021006206051,  0.0028893901035190 ]
  - [   0.0040568518452346,  0.0015323961852118,  0.0025299834087491 ]
  - [   0.0039260848425329,  0.0018420083215460,  0.0025298451073468 ]
  - [   0.0040747383609414,  0.0017220989102498,  0.0025152205489576 ]
  - [   0.0014568425249308,  0.0006172357825562,  0.0026421621441841 ]
  - [   0.0015130238607526,  0.0004863687499892,  0.0025140270590782 ]
  - [   0.0014037056826055,  0.0007482225773856,  0.0025125821121037 ]
  - [   0.0013176379725337,  0.0005569031345658,  0.0028275600634515 ]
  - [   0.0014875316992402,  0.0006257370114326,  0.0023893453180790 ]
  - [   0.0038749512750655, -0.0021150812972337, -0.0002374237519689 ]
  - [   0.0011847522109747,  0.0042513655498624, -0.0002388805150986 ]
  - [   0.0010654993820935,  0.0004518259374890,  0.0022786946501583 ]
  - [   0.0225792452692986,  0.0095432987436652, -0.0486419796943665 ]
  - [   0.0260139610618353,  0.0109282117336988, -0.0376346409320831 ]
  - [   0.0259650666266680,  0.0110385324805975, -0.0376341640949249 ]
  - [   0.0260675475001335,  0.0110154543071985, -0.0376277193427086 ]
  - [   0.0231355093419552,  0.0097791124135256, -0.0454432219266891 ]
  - [   0.0259499996900558,  0.0111600458621979, -0.0376649647951126 ]
  - [   0.0260878726840019,  0.0108363525941968, -0.0376633703708649 ]
  - [   0.0264415517449379,  0.0111760608851910, -0.0372584387660027 ]
  - [  -0.0283528435975313, -0.0119829447939992,  0.0349642261862755 ]
  - [  -0.0282687712460756, -0.0122241396456957,  0.0351598784327507 ]
  - [  -0.0284685231745243, -0.0117545509710908,  0.0351582616567612 ]
  - [  -0.0283231921494007, -0.0119706001132727,  0.0351515859365463 ]
  - [  -0.0284570045769215, -0.0120279556140304,  0.0354223176836967 ]
  - [  -0.0290741287171841, -0.0143187576904893,  0.0347102135419846 ]
  - [  -0.0305296406149864, -0.0108745992183685,  0.0347105637192726 ]
  - [  -0.0284291040152311, -0.0120150772854686,  0.0351269096136093 ]
- atom:    9
  displacement:
    [   0.0100000000000000,  0.0000000000000000,  0.0000000000000000 ]
  forces:
  - [   0.0027487156912684,  0.0013161707902327, -0.0389307513833046 ]
  - [   0.0033328747376800,  0.0012519899755716, -0.0388715937733650 ]
  - [   0.0035590943880379,  0.0010313990060240, -0.0395637601613998 ]
  - [   0.0029038146603853,  0.0012223666999489, -0.0390019640326500 ]
  - [   0.0029414119198918,  0.0017916746437550, -0.0384206175804138 ]
  - [   0.0031585735268891,  0.0013044963125139, -0.0387220196425915 ]
  - [   0.0031410125084221,  0.0013214115751907, -0.0388301126658916 ]
  - [   0.0031374995596707,  0.0012373982463032, -0.0387069545686245 ]
  - [  -0.0195073653012514, -0.0020761420018971,  0.0322011187672615 ]
  - [  -0.0064599616453052, -0.0025980817154050,  0.0361565835773945 ]
  - [  -0.0062887687236071, -0.0027617304585874,  0.0361851751804352 ]
  - [  -0.0062169604934752, -0.0026197233237326,  0.0366169624030590 ]
  - [  -0.0063729747198522, -0.0027603774797171,  0.0355799943208694 ]
  - [  -0.0062508899718523, -0.0026439214125276,  0.0361955240368843 ]
  - [  -0.0062533505260944, -0.0026410024147481,  0.0362213440239429 ]
  - [  -0.0062641887925565, -0.0026322745252401,  0.0361354984343052 ]
  - [   0.0049206698313355,  0.0020010159350932,  0.0026108832098544 ]
  - [   0.0056627215817571,  0.0010903105139732,  0.0036481325514615 ]
  - [   0.0043037133291364,  0.0022791207302362,  0.0029511651955545 ]
  - [   0.0043120002374053,  0.0015827815514058,  0.0025678295642138 ]
  - [   0.0039924001321197,  0.0016694858204573,  0.0026448220014572 ]
  - [   0.0040135290473700,  0.0016284576850012,  0.0029079485684633 ]
  - [   0.0039365682750940,  0.0016457900637761,  0.0026928801089525 ]
  - [   0.0039711082354188,  0.0016958914930001,  0.0028654462657869 ]
  - [   0.0017121606506407,  0.0006345511646941,  0.0025613647885621 ]
  - [   0.0036395248025656, -0.0021074395626783, -0.0006448037456721 ]
  - [   0.0011449351441115,  0.0006269437726587,  0.0026186022441834 ]
  - [   0.0020985212177038,  0.0007380701717921,  0.0024885458406061 ]
  - [   0.0013507716357708,  0.0005485787987709,  0.0024351710453629 ]
  - [   0.0013449771795422,  0.0005794428288937,  0.0024758521467447 ]
  - [   0.0013850424438715,  0.0005744732916355,  0.0024157855659723 ]
  - [   0.0011551785282791,  0.0007025565719232,  0.0025074789300561 ]
  - [   0.0259306393563747,  0.0109354574233294, -0.0376241356134415 ]
  - [   0.0265361443161964,  0.0124021861702204, -0.0376538485288620 ]
  - [   0.0296033173799515,  0.0097062382847071, -0.0371197536587715 ]
  - [   0.0283343680202961,  0.0121322637423873, -0.0373437628149986 ]
  - [   0.0260379053652287,  0.0110039012506604, -0.0376243293285370 ]
  - [   0.0260071586817503,  0.0110971536487341, -0.0377421155571938 ]
  - [   0.0260672699660063,  0.0108626224100590, -0.0378026366233826 ]
  - [   0.0260287951678038,  0.0110038081184030, -0.0376640707254410 ]
  - [  -0.0277417264878750, -0.0115410322323442,  0.0378574654459953 ]
  - [  -0.0285790245980024, -0.0117911603301764,  0.0351639017462730 ]
  - [  -0.0283105596899986, -0.0122047848999500,  0.0351840108633041 ]
  - [  -0.0284683443605900, -0.0116436965763569,  0.0350726097822189 ]
  - [  -0.0271800830960274, -0.0118505917489529,  0.0381176918745041 ]
  - [  -0.0281445384025574, -0.0118588916957378,  0.0350345745682716 ]
  - [  -0.0281378738582134, -0.0119374021887779,  0.0350876450538635 ]
  - [  -0.0282358322292566, -0.0119497552514076,  0.0350652188062668 ]
- atom:    9
  displacement:
    [  -0.0100000000000000,  0.0000000000000000,  0.0000000000000000 ]
  forces:
  - [   0.0035349139943719,  0.0013361439341679, -0.0386281609535217 ]
  - [   0.0029497640207410,  0.0014015758642927, -0.0386847481131554 ]
  - [   0.0027300196234137,  0.0016141912201419, -0.0380178578197956 ]
  - [   0.0033727264963090,  0.0014324397780001, -0.0385622233152390 ]
  - [   0.0033387672156096,  0.0008602270390838, -0.0391446128487587 ]
  - [   0.0031272028572857,  0.0013519850326702, -0.0388379208743572 ]
  - [   0.0031422250904143,  0.0013344490434974, -0.0387343391776085 ]
  - [   0.0031503511127084,  0.0014196869451553, -0.0388584434986115 ]
  - [   0.0070058787241578, -0.0032060893718153,  0.0400991328060627 ]
  - [  -0.0060526286251843, -0.0026910323649645,  0.0362419113516808 ]
  - [  -0.0062184669077396, -0.0025271654594690,  0.0362118631601334 ]
  - [  -0.0062922351062298, -0.0026648268103600,  0.0357833132147789 ]
  - [  -0.0061385352164507, -0.0025278795510530,  0.0368112735450268 ]
  - [  -0.0062597347423434, -0.0026440713554621,  0.0361979901790619 ]
  - [  -0.0062569002620876, -0.0026461004745215,  0.0361722335219383 ]
  - [  -0.0062456885352731, -0.0026540565304458,  0.0362602807581425 ]
  - [   0.0030796474311501,  0.0013796924613416,  0.0028553511947393 ]
  - [   0.0022890267428011,  0.0023012026213109,  0.0018093441613019 ]
  - [   0.0036843330599368,  0.0011000236263499,  0.0025239964015782 ]
  - [   0.0036780317313969,  0.0017873500473797,  0.0029017324559391 ]
  - [   0.0039949472993612,  0.0017052476760000,  0.0028209905140102 ]
  - [   0.0039755320176482,  0.0017448263242841,  0.0025603226386011 ]
  - [   0.0040481518954039,  0.0017324538202956,  0.0027710064314306 ]
  - [   0.0040173516608775,  0.0016806843923405,  0.0026043890975416 ]
  - [   0.0010238890536129,  0.0005281461635605,  0.0022683516144753 ]
  - [  -0.0009520137682557,  0.0033174736890942,  0.0055297687649727 ]
  - [   0.0015869602793828,  0.0005504370201379,  0.0021886478643864 ]
  - [   0.0006207287660800,  0.0004208399332128,  0.0023286412470043 ]
  - [   0.0013859188184142,  0.0006018318235874,  0.0023894216865301 ]
  - [   0.0013871937990189,  0.0005762208602391,  0.0023450250737369 ]
  - [   0.0013501718640327,  0.0005763377994299,  0.0024052150547504 ]
  - [   0.0015773921040818,  0.0004575793864205,  0.0023144034203142 ]
  - [   0.0261359587311745,  0.0110730733722448, -0.0376694500446320 ]
  - [   0.0255204215645790,  0.0096128564327955, -0.0376423448324203 ]
  - [   0.0226110331714153,  0.0122204963117838, -0.0381407588720322 ]