# Thermal properties / unit cell (natom)

unit:
  temperature:   K
  free_energy:   kJ/mol
  entropy:       J/K/mol
  heat_capacity: J/K/mol

natom: 6    
cutoff_frequency: 0.00000
num_modes: 202500
num_integrated_modes: 202499

zero_point_energy:      17.5854928

thermal_properties:
- temperature:         0.0000000
  free_energy:        17.5854928
  entropy:             0.0000000
  heat_capacity:       0.0000000
  energy:             17.5854928

- temperature:        10.0000000
  free_energy:        17.5833317
  entropy:             0.8428674
  heat_capacity:       2.7271746
  energy:             17.5917604

- temperature:        20.0000000
  free_energy:        17.5498044
  entropy:             6.9681681
  heat_capacity:      18.3682857
  energy:             17.6891678

- temperature:        30.0000000
  free_energy:        17.4281014
  entropy:            17.8161972
  heat_capacity:      35.6799620
  energy:             17.9625873

- temperature:        40.0000000
  free_energy:        17.1894170
  entropy:            29.9664055
  heat_capacity:      48.7830665
  energy:             18.3880732

- temperature:        50.0000000
  free_energy:        16.8292949
  entropy:            41.9931611
  heat_capacity:      59.0742615
  energy:             18.9289530

- temperature:        60.0000000
  free_energy:        16.3510938
  entropy:            53.5661278
  heat_capacity:      67.9853094
  energy:             19.5650615

- temperature:        70.0000000
  free_energy:        15.7595610
  entropy:            64.6636130
  heat_capacity:      76.0891944
  energy:             20.2860139

- temperature:        80.0000000
  free_energy:        15.0593027
  entropy:            75.3164635
  heat_capacity:      83.5217235
  energy:             21.0846198

- temperature:        90.0000000
  free_energy:        14.2546247
  entropy:            85.5510829
  heat_capacity:      90.2864038
  energy:             21.9542222

- temperature:       100.0000000
  free_energy:        13.3496168
  entropy:            95.3848106
  heat_capacity:      96.3769730
  energy:             22.8880979

- temperature:       110.0000000
  free_energy:        12.3482222
  entropy:           104.8304062
  heat_capacity:     101.8098910
  energy:             23.8795669

- temperature:       120.0000000
  free_energy:        11.2542630
  entropy:           113.8997395
  heat_capacity:     106.6240873
  energy:             24.9222318

- temperature:       130.0000000
  free_energy:        10.0714393
  entropy:           122.6055598
  heat_capacity:     110.8724934
  energy:             26.0101621

- temperature:       140.0000000
  free_energy:         8.8033167
  entropy:           130.9619637
  heat_capacity:     114.6138870
  energy:             27.1379916

- temperature:       150.0000000
  free_energy:         7.4533139
  entropy:           138.9842165
  heat_capacity:     117.9071497
  energy:             28.3009464

- temperature:       160.0000000
  free_energy:         6.0246928
  entropy:           146.6883364
  heat_capacity:     120.8078545
  energy:             29.4948267

- temperature:       170.0000000
  free_energy:         4.5205532
  entropy:           154.0906525
  heat_capacity:     123.3665573
  energy:             30.7159641

- temperature:       180.0000000
  free_energy:         2.9438316
  entropy:           161.2074257
  heat_capacity:     125.6281857
  energy:             31.9611682

- temperature:       190.0000000
  free_energy:         1.2973034
  entropy:           168.0545571
  heat_capacity:     127.6320685
  energy:             33.2276693

- temperature:       200.0000000
  free_energy:        -0.4164120
  entropy:           174.6473828
  heat_capacity:     129.4123056
  energy:             34.5130646

- temperature:       210.0000000
  free_energy:        -2.1948454
  entropy:           181.0005417
  heat_capacity:     130.9982900
  energy:             35.8152683

- temperature:       220.0000000
  free_energy:        -4.0356702
  entropy:           187.1278986
  heat_capacity:     132.4152744
  energy:             37.1324675

- temperature:       230.0000000
  free_energy:        -5.9366943
  entropy:           193.0425103
  heat_capacity:     133.6849215
  energy:             38.4630830

- temperature:       240.0000000
  free_energy:        -7.8958522
  entropy:           198.7566215
  heat_capacity:     134.8258108
  energy:             39.8057370

- temperature:       250.0000000
  free_energy:        -9.9111967
  entropy:           204.2816806
  heat_capacity:     135.8538885
  energy:             41.1592235

- temperature:       260.0000000
  free_energy:       -11.9808913
  entropy:           209.6283689
  heat_capacity:     136.7828591
  energy:             42.5224846

- temperature:       270.0000000
  free_energy:       -14.1032027
  entropy:           214.8066390
  heat_capacity:     137.6245220
  energy:             43.8945898

- temperature:       280.0000000
  free_energy:       -16.2764936
  entropy:           219.8257563
  heat_capacity:     138.3890583
  energy:             45.2747181

- temperature:       290.0000000
  free_energy:       -18.4992161
  entropy:           224.6943432
  heat_capacity:     139.0852730
  energy:             46.6621434

- temperature:       300.0000000
  free_energy:       -20.7699055
  entropy:           229.4204231
  heat_capacity:     139.7208005
  energy:             48.0562214

- temperature:       310.0000000
  free_energy:       -23.0871745
  entropy:           234.0114640
  heat_capacity:     140.3022775
  energy:             49.4563793

- temperature:       320.0000000
  free_energy:       -25.4497079
  entropy:           238.4744190
  heat_capacity:     140.8354882
  energy:             50.8621061

- temperature:       330.0000000
  free_energy:       -27.8562576
  entropy:           242.8157658
  heat_capacity:     141.3254876
  energy:             52.2729451

- temperature:       340.0000000
  free_energy:       -30.3056381
  entropy:           247.0415433
  heat_capacity:     141.7767051
  energy:             53.6884867

- temperature:       350.0000000
  free_energy:       -32.7967221
  entropy:           251.1573858
  heat_capacity:     142.1930318
  energy:             55.1083629

- temperature:       360.0000000
  free_energy:       -35.3284369
  entropy:           255.1685538
  heat_capacity:     142.5778952
  energy:             56.5322425

- temperature:       370.0000000
  free_energy:       -37.8997607
  entropy:           259.0799642
  heat_capacity:     142.9343218
  energy:             57.9598261

- temperature:       380.0000000
  free_energy:       -40.5097190
  entropy:           262.8962161
  heat_capacity:     143.2649907
  energy:             59.3908431

- temperature:       390.0000000
  free_energy:       -43.1573822
  entropy:           266.6216158
  heat_capacity:     143.5722795
  energy:             60.8250480

- temperature:       400.0000000
  free_energy:       -45.8418620
  entropy:           270.2601995
  heat_capacity:     143.8583027
  energy:             62.2622178

- temperature:       410.0000000
  free_energy:       -48.5623094
  entropy:           273.8157534
  heat_capacity:     144.1249455
  energy:             63.7021495

- temperature:       420.0000000
  free_energy:       -51.3179121
  entropy:           277.2918331
  heat_capacity:     144.3738925
  energy:             65.1446578

- temperature:       430.0000000
  free_energy:       -54.1078923
  entropy:           280.6917807
  heat_capacity:     144.6066520
  energy:             66.5895734

- temperature:       440.0000000
  free_energy:       -56.9315045
  entropy:           284.0187406
  heat_capacity:     144.8245776
  energy:             68.0367414

- temperature:       450.0000000
  free_energy:       -59.7880337
  entropy:           287.2756740
  heat_capacity:     145.0288861
  energy:             69.4860196

- temperature:       460.0000000
  free_energy:       -62.6767939
  entropy:           290.4653723
  heat_capacity:     145.2206743
  energy:             70.9372774

- temperature:       470.0000000
  free_energy:       -65.5971259
  entropy:           293.5904691
  heat_capacity:     145.4009317
  energy:             72.3903946

- temperature:       480.0000000
  free_energy:       -68.5483962
  entropy:           296.6534516
  heat_capacity:     145.5705535
  energy:             73.8452606

- temperature:       490.0000000
  free_energy:       -71.5299957
  entropy:           299.6566707
  heat_capacity:     145.7303508
  energy:             75.3017730

- temperature:       500.0000000
  free_energy:       -74.5413379
  entropy:           302.6023503
  heat_capacity:     145.8810594
  energy:             76.7598373

- temperature:       510.0000000
  free_energy:       -77.5818579
  entropy:           305.4925961
  heat_capacity:     146.0233486
  energy:             78.2193661

- temperature:       520.0000000
  free_energy:       -80.6510117
  entropy:           308.3294036
  heat_capacity:     146.1578277
  energy:             79.6802782

- temperature:       530.0000000
  free_energy:       -83.7482742
  entropy:           311.1146654
  heat_capacity:     146.2850524
  energy:             81.1424985

- temperature:       540.0000000
  free_energy:       -86.8731391
  entropy:           313.8501777
  heat_capacity:     146.4055304
  energy:             82.6059568

- temperature:       550.0000000
  free_energy:       -90.0251176
  entropy:           316.5376468
  heat_capacity:     146.5197262
  energy:             84.0705881

- temperature:       560.0000000
  free_energy:       -93.2037374
  entropy:           319.1786949
  heat_capacity:     146.6280652
  energy:             85.5363318

- temperature:       570.0000000
  free_energy:       -96.4085419
  entropy:           321.7748652
  heat_capacity:     146.7309379
  energy:             87.0031312

- temperature:       580.0000000
  free_energy:       -99.6390900
  entropy:           324.3276267
  heat_capacity:     146.8287029
  energy:             88.4709335

- temperature:       590.0000000
  free_energy:      -102.8949544
  entropy:           326.8383793
  heat_capacity:     146.9216903
  energy:             89.9396894

- temperature:       600.0000000
  free_energy:      -106.1757220
  entropy:           329.3084574
  heat_capacity:     147.0102040
  energy:             91.4093524

- temperature:       610.0000000
  free_energy:      -109.4809923
  entropy:           331.7391340
  heat_capacity:     147.0945244
  energy:             92.8798795

- temperature:       620.0000000
  free_energy:      -112.8103774
  entropy:           334.1316245
  heat_capacity:     147.1749103
  energy:             94.3512298

- temperature:       630.0000000
  free_energy:      -116.1635013
  entropy:           336.4870900
  heat_capacity:     147.2516011
  energy:             95.8233654

- temperature:       640.0000000
  free_energy:      -119.5399995
  entropy:           338.8066402
  heat_capacity:     147.3248184
  energy:             97.2962503

- temperature:       650.0000000
  free_energy:      -122.9395180
  entropy:           341.0913366
  heat_capacity:     147.3947675
  energy:             98.7698508

- temperature:       660.0000000
  free_energy:      -126.3617134
  entropy:           343.3421951
  heat_capacity:     147.4616388
  energy:            100.2441354

- temperature:       670.0000000
  free_energy:      -129.8062523
  entropy:           345.5601884
  heat_capacity:     147.5256091
  energy:            101.7190739

- temperature:       680.0000000
  free_energy:      -133.2728107
  entropy:           347.7462488
  heat_capacity:     147.5868430
  energy:            103.1946384

- temperature:       690.0000000
  free_energy:      -136.7610738
  entropy:           349.9012696
  heat_capacity:     147.6454934
  energy:            104.6708022

- temperature:       700.0000000
  free_energy:      -140.2707355
  entropy:           352.0261081
  heat_capacity:     147.7017028
  energy:            106.1475401

- temperature:       710.0000000
  free_energy:      -143.8014981
  entropy:           354.1215869
  heat_capacity:     147.7556041
  energy:            107.6248286

- temperature:       720.0000000
  free_energy:      -147.3530720
  entropy:           356.1884958
  heat_capacity:     147.8073213
  energy:            109.1026450

- temperature:       730.0000000
  free_energy:      -150.9251753
  entropy:           358.2275937
  heat_capacity:     147.8569702
  energy:            110.5809681

- temperature:       740.0000000
  free_energy:      -154.5175336
  entropy:           360.2396101
  heat_capacity:     147.9046592
  energy:            112.0597778

- temperature:       750.0000000
  free_energy:      -158.1298796
  entropy:           362.2252463
  heat_capacity:     147.9504895
  energy:            113.5390551

- temperature:       760.0000000
  free_energy:      -161.7619529
  entropy:           364.1851771
  heat_capacity:     147.9945561
  energy:            115.0187817

- temperature:       770.0000000
  free_energy:      -165.4134996
  entropy:           366.1200523
  heat_capacity:     148.0369478
  energy:            116.4989406

- temperature:       780.0000000
  free_energy:      -169.0842725
  entropy:           368.0304973
  heat_capacity:     148.0777482
  energy:            117.9795154

- temperature:       790.0000000
  free_energy:      -172.7740302
  entropy:           369.9171148
  heat_capacity:     148.1170356
  energy:            119.4604905

- temperature:       800.0000000
  free_energy:      -176.4825373
  entropy:           371.7804858
  heat_capacity:     148.1548834
  energy:            120.9418513

- temperature:       810.0000000
  free_energy:      -180.2095643
  entropy:           373.6211703
  heat_capacity:     148.1913610
  energy:            122.4235836

- temperature:       820.0000000
  free_energy:      -183.9548869
  entropy:           375.4397086
  heat_capacity:     148.2265334
  energy:            123.9056742

- temperature:       830.0000000
  free_energy:      -187.7182864
  entropy:           377.2366223
  heat_capacity:     148.2604620
  energy:            125.3881102

- temperature:       840.0000000
  free_energy:      -191.4995489
  entropy:           379.0124148
  heat_capacity:     148.2932043
  energy:            126.8708795

- temperature:       850.0000000
  free_energy:      -195.2984659
  entropy:           380.7675722
  heat_capacity:     148.3248150
  energy:            128.3539705

- temperature:       860.0000000
  free_energy:      -199.1148332
  entropy:           382.5025643
  heat_capacity:     148.3553454
  energy:            129.8373722

- temperature:       870.0000000
  free_energy:      -202.9484515
  entropy:           384.2178453
  heat_capacity:     148.3848439
  energy:            131.3210739

- temperature:       880.0000000
  free_energy:      -206.7991258
  entropy:           385.9138541
  heat_capacity:     148.4133564
  energy:            132.8050657

- temperature:       890.0000000
  free_energy:      -210.6666657
  entropy:           387.5910153
  heat_capacity:     148.4409262
  energy:            134.2893379

- temperature:       900.0000000
  free_energy:      -214.5508847
  entropy:           389.2497399
  heat_capacity:     148.4675942
  energy:            135.7738813

- temperature:       910.0000000
  free_energy:      -218.4516004
  entropy:           390.8904256
  heat_capacity:     148.4933993
  energy:            137.2586869

- temperature:       920.0000000
  free_energy:      -222.3686344
  entropy:           392.5134574
  heat_capacity:     148.5183782
  energy:            138.7437465

- temperature:       930.0000000
  free_energy:      -226.3018119
  entropy:           394.1192084
  heat_capacity:     148.5425656
  energy:            140.2290519

- temperature:       940.0000000
  free_energy:      -230.2509621
  entropy:           395.7080398
  heat_capacity:     148.5659945
  energy:            141.7145953

- temperature:       950.0000000
  free_energy:      -234.2159175
  entropy:           397.2803019
  heat_capacity:     148.5886963
  energy:            143.2003693

- temperature:       960.0000000
  free_energy:      -238.1965141
  entropy:           398.8363343
  heat_capacity:     148.6107006
  energy:            144.6863669

- temperature:       970.0000000
  free_energy:      -242.1925912
  entropy:           400.3764663
  heat_capacity:     148.6320356
  energy:            146.1725811

- temperature:       980.0000000
  free_energy:      -246.2039915
  entropy:           401.9010173
  heat_capacity:     148.6527281
  energy:            147.6590055

- temperature:       990.0000000
  free_energy:      -250.2305606
  entropy:           403.4102972
  heat_capacity:     148.6728036
  energy:            149.1456336

- temperature:      1000.0000000
  free_energy:      -254.2721475
  entropy:           404.9046070
  heat_capacity:     148.6922863
  energy:            150.6324595
