# Tetrahedron method
       -1.4187030909        0.0000000000
       -1.3833561160        0.0000000000
       -1.3480091411        0.0000000000
       -1.3126621662        0.0000000000
       -1.2773151913        0.0000000000
       -1.2419682164        0.0000000000
       -1.2066212415        0.0000000000
       -1.1712742666        0.0000000000
       -1.1359272917        0.0000000000
       -1.1005803168        0.0000000000
       -1.0652333418        0.0000000000
       -1.0298863669        0.0000000000
       -0.9945393920        0.0000000000
       -0.9591924171        0.0000000000
       -0.9238454422        0.0000000000
       -0.8884984673        0.0000000000
       -0.8531514924        0.0000000000
       -0.8178045175        0.0616746660
       -0.7824575426        0.2721718066
       -0.7471105676        0.6274059517
       -0.7117635927        0.8434172272
       -0.6764166178        1.0518915304
       -0.6410696429        1.2930929139
       -0.6057226680        1.4906489012
       -0.5703756931        1.7688171558
       -0.5350287182        2.2120769415
       -0.4996817433        2.7729819489
       -0.4643347684        2.7742485204
       -0.4289877934        2.7554394861
       -0.3936408185        2.6972184469
       -0.3582938436        2.4105679695
       -0.3229468687        2.1375766554
       -0.2875998938        1.7569939579
       -0.2522529189        1.5035307700
       -0.2169059440        1.3253037518
       -0.1815589691        1.1891803969
       -0.1462119942        1.0783901200
       -0.1108650192        1.0237269815
       -0.0755180443        0.9881215919
       -0.0401710694        0.9621875140
       -0.0048240945        0.9437931492
        0.0305228804        0.9349181021
        0.0658698553        0.9375339000
        0.1012168302        0.9503357541
        0.1365638051        0.9959109254
        0.1719107800        1.0792197340
        0.2072577549        1.1682255421
        0.2426047299        1.2187852835
        0.2779517048        1.3088391635
        0.3132986797        1.4233464261
        0.3486456546        1.4571563605
        0.3839926295        1.4771120232
        0.4193396044        1.4805974582
        0.4546865793        1.5202730846
        0.4900335542        1.6304808804
        0.5253805291        1.7504828715
        0.5607275041        1.7448036384
        0.5960744790        1.7195452399
        0.6314214539        1.7087098665
        0.6667684288        1.6622391882
        0.7021154037        1.6141542970
        0.7374623786        1.5802508898
        0.7728093535        1.5451929311
        0.8081563284        1.4966954692
        0.8435033033        1.4541551929
        0.8788502783        1.3981346703
        0.9141972532        1.3658751711
        0.9495442281        1.3398702894
        0.9848912030        1.3082263816
        1.0202381779        1.2355884938
        1.0555851528        1.1783961173
        1.0909321277        1.1262955664
        1.1262791026        1.0922692201
        1.1616260775        1.1470124021
        1.1969730525        1.1567409817
        1.2323200274        1.1659156837
        1.2676670023        1.1782646626
        1.3030139772        1.2039306708
        1.3383609521        1.2289647770
        1.3737079270        1.2547637629
        1.4090549019        1.2880592467
        1.4444018768        1.3032729203
        1.4797488517        1.3315699274
        1.5150958267        1.3452517149
        1.5504428016        1.3517079787
        1.5857897765        1.3682086431
        1.6211367514        1.3988416763
        1.6564837263        1.4201704195
        1.6918307012        1.4389922498
        1.7271776761        1.4616048265
        1.7625246510        1.4819301377
        1.7978716259        1.5095408970
        1.8332186008        1.5537028162
        1.8685655758        1.6586076674
        1.9039125507        1.7328218210
        1.9392595256        5.1176161199
        1.9746065005        2.9907008237
        2.0099534754        2.5964899954
        2.0453004503        2.4109653248
        2.0806474252        2.2892618840
        2.1159944001        2.1970216619
        2.1513413750        2.1942727875
        2.1866883500        2.2282047842
        2.2220353249        2.2239090970
        2.2573822998        2.2087096108
        2.2927292747        2.2183919114
        2.3280762496        2.2450660521
        2.3634232245        2.3007457029
        2.3987701994        2.3736397324
        2.4341171743        2.4433089190
        2.4694641492        2.4967729031
        2.5048111242        2.7243039832
        2.5401580991        2.7746532351
        2.5755050740        2.8414405205
        2.6108520489        3.0021691999
        2.6461990238        3.6630281483
        2.6815459987        3.1114243122
        2.7168929736        1.9910632843
        2.7522399485        0.3670728790
        2.7875869234        1.1851063437
        2.8229338984        3.4933137811
        2.8582808733        3.8109055296
        2.8936278482        3.3861742220
        2.9289748231        3.0786595992
        2.9643217980        3.0573370713
        2.9996687729        3.0874090693
        3.0350157478        3.1320550453
        3.0703627227        3.3003862391
        3.1057096976        3.5996365102
        3.1410566725        3.8942305777
        3.1764036475        4.2945011279
        3.2117506224        4.8301585443
        3.2470975973        4.7236888472
        3.2824445722        4.6967124088
        3.3177915471        4.7415316369
        3.3531385220        4.6227968730
        3.3884854969        4.0274725653
        3.4238324718        3.7483377658
        3.4591794467        3.3687422109
        3.4945264217        3.6085351121
        3.5298733966        3.4678898810
        3.5652203715        3.3080399875
        3.6005673464        3.1734153820
        3.6359143213        3.3835597058
        3.6712612962        3.3159649314
        3.7066082711        3.2395904815
        3.7419552460        3.2299443702
        3.7773022209        2.8619618251
        3.8126491959        2.5313752039
        3.8479961708        2.1313397474
        3.8833431457        1.9206958936
        3.9186901206        1.7246207465
        3.9540370955        1.5088968778
        3.9893840704        1.3354440358
        4.0247310453        1.0703811843
        4.0600780202        0.6160584756
        4.0954249951        0.6956541239
        4.1307719701        0.7846626735
        4.1661189450        0.9031364094
        4.2014659199        1.0351028882
        4.2368128948        1.1903745655
        4.2721598697        1.3850711068
        4.3075068446        1.6192923195
        4.3428538195        1.9321739254
        4.3782007944        2.3728175464
        4.4135477693        3.0725549823
        4.4488947443        4.7746328988
        4.4842417192        6.5208149819
        4.5195886941        5.5784823825
        4.5549356690        3.6638996402
        4.5902826439        2.8605733886
        4.6256296188        2.3715615593
        4.6609765937        2.0152024755
        4.6963235686        1.7326140160
        4.7316705435        1.4977842042
        4.7670175184        1.2951356132
        4.8023644934        1.1233723205
        4.8377114683        0.9676610686
        4.8730584432        0.8207974071
        4.9084054181        0.6891460741
        4.9437523930        0.5695246276
        4.9790993679        0.4387853206
        5.0144463428        0.3036236452
        5.0497933177        0.1458074425
        5.0851402926        0.0000000000
        5.1204872676        0.0000000000
        5.1558342425        0.0000000000
        5.1911812174        0.0000000000
        5.2265281923        0.0000000000
        5.2618751672        0.0000000000
        5.2972221421        0.0000000000
        5.3325691170        0.0000000000
        5.3679160919        0.0000000000
        5.4032630668        0.0000000000
        5.4386100418        0.0000000000
        5.4739570167        0.0000000000
        5.5093039916        0.0000000000
        5.5446509665        0.0000000000
        5.5799979414        0.0000000000
        5.6153449163        0.0000000000
        5.6506918912        0.0000000000
