phonopy:
  version: "2.37.1"
  frequency_unit_conversion_factor: 15.633302
  symmetry_tolerance: 1.00000e-05

space_group:
  type: "P1"
  number: 1
  Hall_symbol: "P 1"

primitive_matrix:
- [  1.000000000000000,  1.000000000000000,  0.000000000000000 ]
- [  0.000000000000000,  1.000000000000000,  0.000000000000000 ]
- [  0.000000000000000,  0.000000000000000,  1.000000000000000 ]

supercell_matrix:
- [   3,   0,   0 ]
- [   0,   3,   0 ]
- [   0,   0,   1 ]

primitive_cell:
  lattice:
  - [     4.726203437114682,     0.000000000000000,     0.000000000000000 ] # a
  - [     2.362998906526305,     4.093365304509345,     0.000000000000000 ] # b
  - [     0.003481644885713,     0.003296291752889,    14.601422729196509 ] # c
  points:
  - symbol: Li # 1
    coordinates: [  0.523835355557976,  0.408114605394952,  0.076275405653248 ]
    mass: 6.940000
  - symbol: Li # 2
    coordinates: [  0.190724321966152,  0.075107819059147,  0.928616815449782 ]
    mass: 6.940000
  - symbol: Li # 3
    coordinates: [  0.857375669709214,  0.742050023399359,  0.805201202941820 ]
    mass: 6.940000
  - symbol: Li # 4
    coordinates: [  0.523865581532543,  0.408971433468522,  0.671608345103499 ]
    mass: 6.940000
  - symbol: Li # 5
    coordinates: [  0.857242500751263,  0.741619105724106,  0.005558825389202 ]
    mass: 6.940000
  - symbol: Li # 6
    coordinates: [  0.857116123612435,  0.741299993691578,  0.199967985855235 ]
    mass: 6.940000
  - symbol: Sn # 7
    coordinates: [  0.190477932589496,  0.074726506088939,  0.118383263573740 ]
    mass: 118.710000
  - symbol: Sn # 8
    coordinates: [  0.857165127574207,  0.742423830502322,  0.601846393276348 ]
    mass: 118.710000
  - symbol: Sn # 9
    coordinates: [  0.190516855443058,  0.075631878993329,  0.721037248101819 ]
    mass: 118.710000
  - symbol: Sn # 10
    coordinates: [  0.191015285345487,  0.074705698564582,  0.319300214963419 ]
    mass: 118.710000
  - symbol: Sn # 11
    coordinates: [  0.524070796506734,  0.408532461472923,  0.877592570892002 ]
    mass: 118.710000
  - symbol: Sn # 12
    coordinates: [  0.857693935587513,  0.741329554969740,  0.399183095749035 ]
    mass: 118.710000
  reciprocal_lattice: # without 2pi
  - [     0.211586321516979,    -0.122143568723211,    -0.000022877742953 ] # a*
  - [     0.000000000000000,     0.244297766167700,    -0.000055150564901 ] # b*
  - [     0.000000000000000,     0.000000000000000,     0.068486476869164 ] # c*

unit_cell:
  lattice:
  - [     4.726203437114683,     0.000000000000000,     0.000000000000000 ] # a
  - [    -2.363204530588377,     4.093365304509345,     0.000000000000000 ] # b
  - [     0.003481644885713,     0.003296291752889,    14.601422729196509 ] # c
  points:
  - symbol: Li # 1
    coordinates: [  0.931949960952928,  0.408114605394952,  0.076275405653248 ]
    mass: 6.940000
    reduced_to: 1
  - symbol: Li # 2
    coordinates: [  0.265832141025298,  0.075107819059147,  0.928616815449782 ]
    mass: 6.940000
    reduced_to: 2
  - symbol: Li # 3
    coordinates: [  0.599425693108573,  0.742050023399359,  0.805201202941820 ]
    mass: 6.940000
    reduced_to: 3
  - symbol: Li # 4
    coordinates: [  0.932837015001065,  0.408971433468522,  0.671608345103499 ]
    mass: 6.940000
    reduced_to: 4
  - symbol: Li # 5
    coordinates: [  0.598861606475370,  0.741619105724106,  0.005558825389202 ]
    mass: 6.940000
    reduced_to: 5
  - symbol: Li # 6
    coordinates: [  0.598416117304013,  0.741299993691578,  0.199967985855235 ]
    mass: 6.940000
    reduced_to: 6
  - symbol: Sn # 7
    coordinates: [  0.265204438678434,  0.074726506088939,  0.118383263573740 ]
    mass: 118.710000
    reduced_to: 7
  - symbol: Sn # 8
    coordinates: [  0.599588958076529,  0.742423830502322,  0.601846393276348 ]
    mass: 118.710000
    reduced_to: 8
  - symbol: Sn # 9
    coordinates: [  0.266148734436387,  0.075631878993329,  0.721037248101819 ]
    mass: 118.710000
    reduced_to: 9
  - symbol: Sn # 10
    coordinates: [  0.265720983910069,  0.074705698564582,  0.319300214963419 ]
    mass: 118.710000
    reduced_to: 10
  - symbol: Sn # 11
    coordinates: [  0.932603257979658,  0.408532461472923,  0.877592570892002 ]
    mass: 118.710000
    reduced_to: 11
  - symbol: Sn # 12
    coordinates: [  0.599023490557253,  0.741329554969740,  0.399183095749035 ]
    mass: 118.710000
    reduced_to: 12

supercell:
  lattice:
  - [    14.178610311344048,     0.000000000000000,     0.000000000000000 ] # a
  - [    -7.089613591765132,    12.280095913528037,     0.000000000000000 ] # b
  - [     0.003481644885713,     0.003296291752889,    14.601422729196509 ] # c
  points:
  - symbol: Li # 1
    coordinates: [  0.310649986984309,  0.136038201798317,  0.076275405653248 ]
    mass: 6.940000
    reduced_to: 1
  - symbol: Li # 2
    coordinates: [  0.643983320317643,  0.136038201798317,  0.076275405653248 ]
    mass: 6.940000
    reduced_to: 1
  - symbol: Li # 3
    coordinates: [  0.977316653650976,  0.136038201798317,  0.076275405653248 ]
    mass: 6.940000
    reduced_to: 1
  - symbol: Li # 4
    coordinates: [  0.310649986984309,  0.469371535131651,  0.076275405653248 ]
    mass: 6.940000
    reduced_to: 1
  - symbol: Li # 5
    coordinates: [  0.643983320317643,  0.469371535131651,  0.076275405653248 ]
    mass: 6.940000
    reduced_to: 1
  - symbol: Li # 6
    coordinates: [  0.977316653650976,  0.469371535131651,  0.076275405653248 ]
    mass: 6.940000
    reduced_to: 1
  - symbol: Li # 7
    coordinates: [  0.310649986984309,  0.802704868464984,  0.076275405653248 ]
    mass: 6.940000
    reduced_to: 1
  - symbol: Li # 8
    coordinates: [  0.643983320317643,  0.802704868464984,  0.076275405653248 ]
    mass: 6.940000
    reduced_to: 1
  - symbol: Li # 9
    coordinates: [  0.977316653650976,  0.802704868464984,  0.076275405653248 ]
    mass: 6.940000
    reduced_to: 1
  - symbol: Li # 10
    coordinates: [  0.088610713675099,  0.025035939686382,  0.928616815449782 ]
    mass: 6.940000
    reduced_to: 10
  - symbol: Li # 11
    coordinates: [  0.421944047008433,  0.025035939686382,  0.928616815449782 ]
    mass: 6.940000
    reduced_to: 10
  - symbol: Li # 12
    coordinates: [  0.755277380341766,  0.025035939686382,  0.928616815449782 ]
    mass: 6.940000
    reduced_to: 10
  - symbol: Li # 13
    coordinates: [  0.088610713675099,  0.358369273019715,  0.928616815449782 ]
    mass: 6.940000
    reduced_to: 10
  - symbol: Li # 14
    coordinates: [  0.421944047008433,  0.358369273019715,  0.928616815449782 ]
    mass: 6.940000
    reduced_to: 10
  - symbol: Li # 15
    coordinates: [  0.755277380341766,  0.358369273019715,  0.928616815449782 ]
    mass: 6.940000
    reduced_to: 10
  - symbol: Li # 16
    coordinates: [  0.088610713675099,  0.691702606353049,  0.928616815449782 ]
    mass: 6.940000
    reduced_to: 10
  - symbol: Li # 17
    coordinates: [  0.421944047008433,  0.691702606353049,  0.928616815449782 ]
    mass: 6.940000
    reduced_to: 10
  - symbol: Li # 18
    coordinates: [  0.755277380341766,  0.691702606353049,  0.928616815449782 ]
    mass: 6.940000
    reduced_to: 10
  - symbol: Li # 19
    coordinates: [  0.199808564369524,  0.247350007799786,  0.805201202941820 ]
    mass: 6.940000
    reduced_to: 19
  - symbol: Li # 20
    coordinates: [  0.533141897702858,  0.247350007799786,  0.805201202941820 ]
    mass: 6.940000
    reduced_to: 19
  - symbol: Li # 21
    coordinates: [  0.866475231036191,  0.247350007799786,  0.805201202941820 ]
    mass: 6.940000
    reduced_to: 19
  - symbol: Li # 22
    coordinates: [  0.199808564369524,  0.580683341133120,  0.805201202941820 ]
    mass: 6.940000
    reduced_to: 19
  - symbol: Li # 23
    coordinates: [  0.533141897702858,  0.580683341133120,  0.805201202941820 ]
    mass: 6.940000
    reduced_to: 19
  - symbol: Li # 24
    coordinates: [  0.866475231036191,  0.580683341133120,  0.805201202941820 ]
    mass: 6.940000
    reduced_to: 19
  - symbol: Li # 25
    coordinates: [  0.199808564369524,  0.914016674466453,  0.805201202941820 ]
    mass: 6.940000
    reduced_to: 19
  - symbol: Li # 26
    coordinates: [  0.533141897702858,  0.914016674466453,  0.805201202941820 ]
    mass: 6.940000
    reduced_to: 19
  - symbol: Li # 27
    coordinates: [  0.866475231036191,  0.914016674466453,  0.805201202941820 ]
    mass: 6.940000
    reduced_to: 19
  - symbol: Li # 28
    coordinates: [  0.310945671667022,  0.136323811156174,  0.671608345103499 ]
    mass: 6.940000
    reduced_to: 28
  - symbol: Li # 29
    coordinates: [  0.644279005000355,  0.136323811156174,  0.671608345103499 ]
    mass: 6.940000
    reduced_to: 28
  - symbol: Li # 30
    coordinates: [  0.977612338333688,  0.136323811156174,  0.671608345103499 ]
    mass: 6.940000
    reduced_to: 28
  - symbol: Li # 31
    coordinates: [  0.310945671667022,  0.469657144489508,  0.671608345103499 ]
    mass: 6.940000
    reduced_to: 28
  - symbol: Li # 32
    coordinates: [  0.644279005000355,  0.469657144489508,  0.671608345103499 ]
    mass: 6.940000
    reduced_to: 28
  - symbol: Li # 33
    coordinates: [  0.977612338333688,  0.469657144489508,  0.671608345103499 ]
    mass: 6.940000
    reduced_to: 28
  - symbol: Li # 34
    coordinates: [  0.310945671667022,  0.802990477822841,  0.671608345103499 ]
    mass: 6.940000
    reduced_to: 28
  - symbol: Li # 35
    coordinates: [  0.644279005000355,  0.802990477822841,  0.671608345103499 ]
    mass: 6.940000
    reduced_to: 28
  - symbol: Li # 36
    coordinates: [  0.977612338333688,  0.802990477822841,  0.671608345103499 ]
    mass: 6.940000
    reduced_to: 28
  - symbol: Li # 37
    coordinates: [  0.199620535491790,  0.247206368574702,  0.005558825389202 ]
    mass: 6.940000
    reduced_to: 37
  - symbol: Li # 38
    coordinates: [  0.532953868825123,  0.247206368574702,  0.005558825389202 ]
    mass: 6.940000
    reduced_to: 37
  - symbol: Li # 39
    coordinates: [  0.866287202158457,  0.247206368574702,  0.005558825389202 ]
    mass: 6.940000
    reduced_to: 37
  - symbol: Li # 40
    coordinates: [  0.199620535491790,  0.580539701908035,  0.005558825389202 ]
    mass: 6.940000
    reduced_to: 37
  - symbol: Li # 41
    coordinates: [  0.532953868825123,  0.580539701908035,  0.005558825389202 ]
    mass: 6.940000
    reduced_to: 37
  - symbol: Li # 42
    coordinates: [  0.866287202158457,  0.580539701908035,  0.005558825389202 ]
    mass: 6.940000
    reduced_to: 37
  - symbol: Li # 43
    coordinates: [  0.199620535491790,  0.913873035241369,  0.005558825389202 ]
    mass: 6.940000
    reduced_to: 37
  - symbol: Li # 44
    coordinates: [  0.532953868825123,  0.913873035241369,  0.005558825389202 ]
    mass: 6.940000
    reduced_to: 37
  - symbol: Li # 45
    coordinates: [  0.866287202158457,  0.913873035241369,  0.005558825389202 ]
    mass: 6.940000
    reduced_to: 37
  - symbol: Li # 46
    coordinates: [  0.199472039101338,  0.247099997897193,  0.199967985855235 ]
    mass: 6.940000
    reduced_to: 46
  - symbol: Li # 47
    coordinates: [  0.532805372434671,  0.247099997897193,  0.199967985855235 ]
    mass: 6.940000
    reduced_to: 46
  - symbol: Li # 48
    coordinates: [  0.866138705768004,  0.247099997897193,  0.199967985855235 ]
    mass: 6.940000
    reduced_to: 46
  - symbol: Li # 49
    coordinates: [  0.199472039101338,  0.580433331230526,  0.199967985855235 ]
    mass: 6.940000
    reduced_to: 46
  - symbol: Li # 50
    coordinates: [  0.532805372434671,  0.580433331230526,  0.199967985855235 ]
    mass: 6.940000
    reduced_to: 46
  - symbol: Li # 51
    coordinates: [  0.866138705768004,  0.580433331230526,  0.199967985855235 ]
    mass: 6.940000
    reduced_to: 46
  - symbol: Li # 52
    coordinates: [  0.199472039101338,  0.913766664563859,  0.199967985855235 ]
    mass: 6.940000
    reduced_to: 46
  - symbol: Li # 53
    coordinates: [  0.532805372434671,  0.913766664563859,  0.199967985855235 ]
    mass: 6.940000
    reduced_to: 46
  - symbol: Li # 54
    coordinates: [  0.866138705768004,  0.913766664563859,  0.199967985855235 ]
    mass: 6.940000
    reduced_to: 46
  - symbol: Sn # 55
    coordinates: [  0.088401479559478,  0.024908835362980,  0.118383263573740 ]
    mass: 118.710000
    reduced_to: 55
  - symbol: Sn # 56
    coordinates: [  0.421734812892811,  0.024908835362980,  0.118383263573740 ]
    mass: 118.710000
    reduced_to: 55
  - symbol: Sn # 57
    coordinates: [  0.755068146226145,  0.024908835362980,  0.118383263573740 ]
    mass: 118.710000
    reduced_to: 55
  - symbol: Sn # 58
    coordinates: [  0.088401479559478,  0.358242168696313,  0.118383263573740 ]
    mass: 118.710000
    reduced_to: 55
  - symbol: Sn # 59
    coordinates: [  0.421734812892811,  0.358242168696313,  0.118383263573740 ]
    mass: 118.710000
    reduced_to: 55
  - symbol: Sn # 60
    coordinates: [  0.755068146226145,  0.358242168696313,  0.118383263573740 ]
    mass: 118.710000
    reduced_to: 55
  - symbol: Sn # 61
    coordinates: [  0.088401479559478,  0.691575502029646,  0.118383263573740 ]
    mass: 118.710000
    reduced_to: 55
  - symbol: Sn # 62
    coordinates: [  0.421734812892811,  0.691575502029646,  0.118383263573740 ]
    mass: 118.710000
    reduced_to: 55
  - symbol: Sn # 63
    coordinates: [  0.755068146226145,  0.691575502029646,  0.118383263573740 ]
    mass: 118.710000
    reduced_to: 55
  - symbol: Sn # 64
    coordinates: [  0.199862986025510,  0.247474610167441,  0.601846393276348 ]
    mass: 118.710000
    reduced_to: 64
  - symbol: Sn # 65
    coordinates: [  0.533196319358843,  0.247474610167441,  0.601846393276348 ]
    mass: 118.710000
    reduced_to: 64
  - symbol: Sn # 66
    coordinates: [  0.866529652692176,  0.247474610167441,  0.601846393276348 ]
    mass: 118.710000
    reduced_to: 64
  - symbol: Sn # 67
    coordinates: [  0.199862986025510,  0.580807943500774,  0.601846393276348 ]
    mass: 118.710000
    reduced_to: 64
  - symbol: Sn # 68
    coordinates: [  0.533196319358843,  0.580807943500774,  0.601846393276348 ]
    mass: 118.710000
    reduced_to: 64
  - symbol: Sn # 69
    coordinates: [  0.866529652692176,  0.580807943500774,  0.601846393276348 ]
    mass: 118.710000
    reduced_to: 64
  - symbol: Sn # 70
    coordinates: [  0.199862986025510,  0.914141276834107,  0.601846393276348 ]
    mass: 118.710000
    reduced_to: 64
  - symbol: Sn # 71
    coordinates: [  0.533196319358843,  0.914141276834107,  0.601846393276348 ]
    mass: 118.710000
    reduced_to: 64
  - symbol: Sn # 72
    coordinates: [  0.866529652692176,  0.914141276834107,  0.601846393276348 ]
    mass: 118.710000
    reduced_to: 64
  - symbol: Sn # 73
    coordinates: [  0.088716244812129,  0.025210626331110,  0.721037248101819 ]
    mass: 118.710000
    reduced_to: 73
  - symbol: Sn # 74
    coordinates: [  0.422049578145462,  0.025210626331110,  0.721037248101819 ]
    mass: 118.710000
    reduced_to: 73
  - symbol: Sn # 75
    coordinates: [  0.755382911478796,  0.025210626331110,  0.721037248101819 ]
    mass: 118.710000
    reduced_to: 73
  - symbol: Sn # 76
    coordinates: [  0.088716244812129,  0.358543959664443,  0.721037248101819 ]
    mass: 118.710000
    reduced_to: 73
  - symbol: Sn # 77
    coordinates: [  0.422049578145462,  0.358543959664443,  0.721037248101819 ]
    mass: 118.710000
    reduced_to: 73
  - symbol: Sn # 78
    coordinates: [  0.755382911478796,  0.358543959664443,  0.721037248101819 ]
    mass: 118.710000
    reduced_to: 73
  - symbol: Sn # 79
    coordinates: [  0.088716244812129,  0.691877292997776,  0.721037248101819 ]
    mass: 118.710000
    reduced_to: 73
  - symbol: Sn # 80
    coordinates: [  0.422049578145462,  0.691877292997776,  0.721037248101819 ]
    mass: 118.710000
    reduced_to: 73
  - symbol: Sn # 81
    coordinates: [  0.755382911478796,  0.691877292997776,  0.721037248101819 ]
    mass: 118.710000
    reduced_to: 73
  - symbol: Sn # 82
    coordinates: [  0.088573661303356,  0.024901899521527,  0.319300214963419 ]
    mass: 118.710000
    reduced_to: 82
  - symbol: Sn # 83
    coordinates: [  0.421906994636689,  0.024901899521527,  0.319300214963419 ]
    mass: 118.710000
    reduced_to: 82
  - symbol: Sn # 84
    coordinates: [  0.755240327970023,  0.024901899521527,  0.319300214963419 ]
    mass: 118.710000
    reduced_to: 82
  - symbol: Sn # 85
    coordinates: [  0.088573661303356,  0.358235232854861,  0.319300214963419 ]
    mass: 118.710000
    reduced_to: 82
  - symbol: Sn # 86
    coordinates: [  0.421906994636689,  0.358235232854861,  0.319300214963419 ]
    mass: 118.710000
    reduced_to: 82
  - symbol: Sn # 87
    coordinates: [  0.755240327970023,  0.358235232854861,  0.319300214963419 ]
    mass: 118.710000
    reduced_to: 82
  - symbol: Sn # 88
    coordinates: [  0.088573661303356,  0.691568566188194,  0.319300214963419 ]
    mass: 118.710000
    reduced_to: 82
  - symbol: Sn # 89
    coordinates: [  0.421906994636689,  0.691568566188194,  0.319300214963419 ]
    mass: 118.710000
    reduced_to: 82
  - symbol: Sn # 90
    coordinates: [  0.755240327970023,  0.691568566188194,  0.319300214963419 ]
    mass: 118.710000
    reduced_to: 82
  - symbol: Sn # 91
    coordinates: [  0.310867752659886,  0.136177487157641,  0.877592570892002 ]
    mass: 118.710000
    reduced_to: 91
  - symbol: Sn # 92
    coordinates: [  0.644201085993219,  0.136177487157641,  0.877592570892002 ]
    mass: 118.710000
    reduced_to: 91
  - symbol: Sn # 93
    coordinates: [  0.977534419326552,  0.136177487157641,  0.877592570892002 ]
    mass: 118.710000
    reduced_to: 91
  - symbol: Sn # 94
    coordinates: [  0.310867752659886,  0.469510820490974,  0.877592570892002 ]
    mass: 118.710000
    reduced_to: 91
  - symbol: Sn # 95
    coordinates: [  0.644201085993219,  0.469510820490974,  0.877592570892002 ]
    mass: 118.710000
    reduced_to: 91
  - symbol: Sn # 96
    coordinates: [  0.977534419326552,  0.469510820490974,  0.877592570892002 ]
    mass: 118.710000
    reduced_to: 91
  - symbol: Sn # 97
    coordinates: [  0.310867752659886,  0.802844153824308,  0.877592570892002 ]
    mass: 118.710000
    reduced_to: 91
  - symbol: Sn # 98
    coordinates: [  0.644201085993219,  0.802844153824308,  0.877592570892002 ]
    mass: 118.710000
    reduced_to: 91
  - symbol: Sn # 99
    coordinates: [  0.977534419326552,  0.802844153824308,  0.877592570892002 ]
    mass: 118.710000
    reduced_to: 91
  - symbol: Sn # 100
    coordinates: [  0.199674496852418,  0.247109851656580,  0.399183095749035 ]
    mass: 118.710000
    reduced_to: 100
  - symbol: Sn # 101
    coordinates: [  0.533007830185751,  0.247109851656580,  0.399183095749035 ]
    mass: 118.710000
    reduced_to: 100
  - symbol: Sn # 102
    coordinates: [  0.866341163519084,  0.247109851656580,  0.399183095749035 ]
    mass: 118.710000
    reduced_to: 100
  - symbol: Sn # 103
    coordinates: [  0.199674496852418,  0.580443184989913,  0.399183095749035 ]
    mass: 118.710000
    reduced_to: 100
  - symbol: Sn # 104
    coordinates: [  0.533007830185751,  0.580443184989913,  0.399183095749035 ]
    mass: 118.710000
    reduced_to: 100
  - symbol: Sn # 105
    coordinates: [  0.866341163519084,  0.580443184989913,  0.399183095749035 ]
    mass: 118.710000
    reduced_to: 100
  - symbol: Sn # 106
    coordinates: [  0.199674496852418,  0.913776518323247,  0.399183095749035 ]
    mass: 118.710000
    reduced_to: 100
  - symbol: Sn # 107
    coordinates: [  0.533007830185751,  0.913776518323247,  0.399183095749035 ]
    mass: 118.710000
    reduced_to: 100
  - symbol: Sn # 108
    coordinates: [  0.866341163519084,  0.913776518323247,  0.399183095749035 ]
    mass: 118.710000
    reduced_to: 100

displacements:
- atom:    1
  displacement:
    [   0.0100000000000000,  0.0000000000000000,  0.0000000000000000 ]
  forces:
  - [  -0.0282033868134022,  0.0004182494885754, -0.0021178014576435 ]
  - [  -0.0000376053503715, -0.0000310919785989, -0.0018184706568718 ]
  - [  -0.0000409439235227,  0.0004251405189279, -0.0021789409220219 ]
  - [   0.0004312401288189,  0.0002377786295256, -0.0019061584025621 ]
  - [   0.0004308577917982,  0.0001495118049206, -0.0020903795957565 ]
  - [   0.0002976222895086,  0.0001945224357769, -0.0019983034580946 ]
  - [   0.0004307925410103,  0.0006994958966970, -0.0017232391983271 ]
  - [   0.0002978661796078,  0.0001942103554029, -0.0019976664334536 ]
  - [   0.0004288680211175, -0.0003021147276741, -0.0022682175040245 ]
  - [  -0.0001537249481771, -0.0001908028498292, -0.0336717069149017 ]
  - [  -0.0001452739670640,  0.0000126929953694, -0.0347467400133610 ]
  - [  -0.0002440956595819, -0.0000885808840394, -0.0342074520885944 ]
  - [  -0.0003739632666111, -0.0000515170395374, -0.0342620685696602 ]
  - [   0.0000271601602435, -0.0000907871872187, -0.0342008918523788 ]
  - [  -0.0003717234358191, -0.0001181978732347, -0.0341529920697212 ]
  - [  -0.0003162208595313, -0.0000873777898960, -0.0342058837413788 ]
  - [  -0.0002696115407161, -0.0001026296522468, -0.0342097505927086 ]
  - [  -0.0002710795379244, -0.0000708778388798, -0.0341999754309654 ]
  - [  -0.0004486737889238, -0.0002921588020399,  0.0133478194475174 ]
  - [  -0.0004484010860324, -0.0001640768023208,  0.0134826451539993 ]
  - [  -0.0005035282811150, -0.0002288620453328,  0.0134142711758614 ]
  - [  -0.0005014704074711, -0.0002269676188007,  0.0134185291826725 ]
  - [  -0.0005137486732565, -0.0002302009379491,  0.0134130567312241 ]
  - [  -0.0005002339603379, -0.0002295438898727,  0.0134080983698368 ]
  - [  -0.0005600551376119, -0.0002298401668668,  0.0134145654737949 ]
  - [  -0.0005336342146620, -0.0002177507849410,  0.0134275369346142 ]
  - [  -0.0005337821785361, -0.0002391164889559,  0.0134017467498779 ]
  - [  -0.0002528862969484,  0.0003681214875542,  0.0295712351799011 ]
  - [  -0.0001956764317583,  0.0003667007549666,  0.0295632593333721 ]
  - [  -0.0001937969063874,  0.0003668628633022,  0.0295837298035622 ]
  - [  -0.0001920383074321,  0.0003669384750538,  0.0295836851000786 ]
  - [  -0.0001920033246279,  0.0003716711071320,  0.0295646972954273 ]
  - [  -0.0002004873822443,  0.0003714230842888,  0.0295728668570518 ]
  - [  -0.0001953155151568,  0.0003670352161862,  0.0295759327709675 ]
  - [  -0.0001934919855557,  0.0003644006792456,  0.0295748189091682 ]
  - [  -0.0001967581338249,  0.0003653561579995,  0.0295771621167660 ]
  - [   0.0032225088216364, -0.0020456430502236, -0.0026261284947395 ]
  - [   0.0032609016634524,  0.0021614688448608, -0.0054432842880487 ]
  - [   0.0001835694565671,  0.0000372348586097, -0.0040204655379057 ]
  - [   0.0001708080235403,  0.0000296336947940, -0.0040080770850182 ]
  - [   0.0001190750699607,  0.0000375023228116, -0.0040204394608736 ]
  - [   0.0001713546516839,  0.0000440487056039, -0.0040324535220861 ]
  - [  -0.0004009762196802,  0.0000438357819803, -0.0040198750793934 ]
  - [  -0.0001816902076825,  0.0002109420020133, -0.0036421082913876 ]
  - [  -0.0001785776112229, -0.0001346226781607, -0.0043964311480522 ]
  - [   0.0011132330400869, -0.0001913807209348, -0.0076136887073517 ]
  - [   0.0011319878976792,  0.0006513337721117, -0.0070633664727211 ]
  - [   0.0006127041997388,  0.0002257885062136, -0.0073457509279251 ]
  - [   0.0005232952535152,  0.0001751734962454, -0.0073618739843369 ]
  - [   0.0004736328555737,  0.0002293227735208, -0.0073491930961609 ]
  - [   0.0005235789576545,  0.0002782369847409, -0.0073383376002312 ]
  - [   0.0003931032551918,  0.0002222015900770, -0.0073489397764206 ]
  - [  -0.0007721482543275,  0.0009441317524761, -0.0081306621432304 ]
  - [  -0.0007747999625280, -0.0004971580347046, -0.0065675079822540 ]
  - [   0.0118087269365788,  0.0066556460224092,  0.0105562778189778 ]
  - [   0.0121213076636195, -0.0068107331171632,  0.0170574001967907 ]
  - [   0.0000714199850336,  0.0000369212648366,  0.0137530704960227 ]
  - [   0.0000925267959246,  0.0000229948927881,  0.0137539552524686 ]
  - [   0.0003058699658141, -0.0000157781469170,  0.0137430382892489 ]
  - [   0.0000921587488847,  0.0000497633154737,  0.0137529280036688 ]
  - [   0.0000702322358848,  0.0000399620112148,  0.0137530295178294 ]
  - [   0.0000648911955068,  0.0000363425933756,  0.0137194469571114 ]
  - [   0.0000665885163471,  0.0000439261202700,  0.0137868393212557 ]
  - [   0.0000637837947579, -0.0006229345453903, -0.0173150151968002 ]
  - [   0.0000635235192021, -0.0006283295806497, -0.0174211561679840 ]
  - [   0.0000760190814617, -0.0006263599498197, -0.0173687189817429 ]
  - [   0.0000669059081702, -0.0006286524003372, -0.0173671618103981 ]
  - [   0.0000666452106088, -0.0006244063260965, -0.0173685550689697 ]
  - [   0.0000675791234244, -0.0006213098531589, -0.0173693299293518 ]
  - [   0.0000672529276926, -0.0006227717967704, -0.0173689574003220 ]
  - [   0.0000670883309795, -0.0006243803072721, -0.0173745229840279 ]
  - [   0.0000691651366651, -0.0006237485213205, -0.0173606052994728 ]
  - [   0.0002935529337265, -0.0003702952526510,  0.0375772267580032 ]
  - [   0.0002954005904030, -0.0002983866725117,  0.0378542616963387 ]
  - [   0.0003098422894254, -0.0003333389759064,  0.0377162173390388 ]
  - [   0.0003430265933275, -0.0003285696730018,  0.0376806743443012 ]
  - [   0.0003551437985152, -0.0003360789269209,  0.0377149544656277 ]
  - [   0.0003393969964236, -0.0003443192690611,  0.0377506837248802 ]
  - [   0.0003591724671423, -0.0003378894180059,  0.0377157740294933 ]
  - [   0.0003385250456631, -0.0003196045290679,  0.0377117097377777 ]
  - [   0.0003355410881341, -0.0003519817255437,  0.0377174466848373 ]
  - [  -0.0000503924675286,  0.0002286930102855,  0.0082555860280991 ]
  - [  -0.0000471076928079, -0.0000306847505271,  0.0091090053319931 ]
  - [  -0.0002432595938444,  0.0000965727958828,  0.0086800158023834 ]
  - [  -0.0002699991746340,  0.0001029446721077,  0.0087378099560738 ]
  - [  -0.0002739328774624,  0.0000930392998271,  0.0086770728230476 ]
  - [  -0.0002680474426597,  0.0000832594232634,  0.0086168572306633 ]
  - [  -0.0002500865957700,  0.0000911774113774,  0.0086788386106491 ]
  - [  -0.0002595543046482,  0.0000790506601334,  0.0086879357695580 ]
  - [  -0.0002626915811561,  0.0001065339893103,  0.0086658447980881 ]
  - [   0.0000770406331867,  0.0001293327659369, -0.0279502086341381 ]
  - [  -0.0001749037764966,  0.0001222011633217, -0.0280632786452770 ]
  - [  -0.0001741424202919,  0.0001350687816739, -0.0278965197503567 ]
  - [  -0.0001712129451334,  0.0001437989994884, -0.0279731042683125 ]
  - [  -0.0001707545015961,  0.0001123580150306, -0.0279892534017563 ]
  - [  -0.0002051109913737,  0.0001293416135013, -0.0279783681035042 ]
  - [  -0.0001537301577628,  0.0001311814412475, -0.0280575044453144 ]
  - [  -0.0002100495621562,  0.0001345863565803, -0.0279797390103340 ]
  - [  -0.0001520477235317,  0.0001323851756752, -0.0279077887535095 ]
  - [   0.0000058168079704,  0.0002017905935645, -0.0102297868579626 ]
  - [   0.0000048675574362,  0.0001664315350354, -0.0101994667202234 ]
  - [  -0.0000438564456999,  0.0001857192255557, -0.0102167259901762 ]
  - [  -0.0000255495542660,  0.0002021712716669, -0.0102045629173517 ]
  - [  -0.0000185796525329,  0.0001899937633425, -0.0102116074413061 ]
  - [  -0.0000224011018872,  0.0001773783005774, -0.0102195441722870 ]
  - [   0.0000354504445568,  0.0001890787389129, -0.0102133648470044 ]
  - [  -0.0000493481056765,  0.0002114127855748, -0.0102420551702380 ]
  - [  -0.0000500873429701,  0.0001698490232229, -0.0101873315870762 ]
- atom:    1
  displacement:
    [  -0.0100000000000000,  0.0000000000000000,  0.0000000000000000 ]
  forces:
  - [   0.0287636145949364,  0.0004069561255164, -0.0021045096218586 ]
  - [   0.0006035515107214,  0.0004255155799910, -0.0021778345108032 ]
  - [   0.0006002506706864, -0.0000312970951200, -0.0018182061612606 ]
  - [   0.0001296128466493,  0.0001497983612353, -0.0020902995020151 ]
  - [   0.0001294229441555,  0.0002374360774411, -0.0019061267375946 ]
  - [   0.0002625028137118,  0.0001943715469679, -0.0019982662051916 ]
  - [   0.0001291967928410, -0.0003035135159735, -0.0022671725600958 ]
  - [   0.0002626843051985,  0.0001941269874806, -0.0019974615424871 ]
  - [   0.0001272772788070,  0.0006999653996900, -0.0017234925180674 ]
  - [  -0.0004125044506509,  0.0000098580494523, -0.0347520709037781 ]
  - [  -0.0003980688052252, -0.0001928731799126, -0.0336753614246845 ]
  - [  -0.0003146622329950, -0.0000884644687176, -0.0342075675725937 ]
  - [  -0.0001824609935284, -0.0001175766810775, -0.0341536924242973 ]
  - [  -0.0005807299166918, -0.0000901781022549, -0.0342005267739296 ]
  - [  -0.0001778118312359, -0.0000507030636072, -0.0342622995376587 ]
  - [  -0.0002393632166786, -0.0000873201643117, -0.0342060290277004 ]
  - [  -0.0002857709187083, -0.0000715344212949, -0.0342000015079975 ]
  - [  -0.0002871996839531, -0.0001024222001433, -0.0342101156711578 ]
  - [  -0.0005627665668726, -0.0001643717987463,  0.0134827531874180 ]
  - [  -0.0005634589469992, -0.0002916686935350,  0.0133489742875099 ]
  - [  -0.0005096315871924, -0.0002289341064170,  0.0134143196046352 ]
  - [  -0.0005095651140437, -0.0002281410852447,  0.0134094506502151 ]
  - [  -0.0004971573944204, -0.0002302505308762,  0.0134129486978054 ]
  - [  -0.0005083466530778, -0.0002284714719281,  0.0134174451231956 ]
  - [  -0.0004538646899164, -0.0002304669469595,  0.0134144499897957 ]
  - [  -0.0004808016819879, -0.0002388042630628,  0.0134021192789078 ]
  - [  -0.0004805002827197, -0.0002182874595746,  0.0134271197021008 ]
  - [  -0.0001379805908073,  0.0003682906972244,  0.0295687727630138 ]
  - [  -0.0001983999391086,  0.0003648663987406,  0.0295840203762054 ]
  - [  -0.0001965441915672,  0.0003687310963869,  0.0295630767941475 ]
  - [  -0.0001962435781024,  0.0003707159194164,  0.0295646004378796 ]
  - [  -0.0001963229733519,  0.0003676151973195,  0.0295838415622711 ]
  - [  -0.0001919316127896,  0.0003712055040523,  0.0295728817582130 ]
  - [  -0.0001936206826940,  0.0003647324047051,  0.0295775718986988 ]