# Thermal properties / unit cell (natom)

unit:
  temperature:   K
  free_energy:   kJ/mol
  entropy:       J/K/mol
  heat_capacity: J/K/mol

natom: 2    
cutoff_frequency: 0.00000
num_modes: 279936
num_integrated_modes: 279934

zero_point_energy:       6.1300009

thermal_properties:
- temperature:         0.0000000
  free_energy:         6.1300009
  entropy:             0.0000000
  heat_capacity:       0.0000000
  energy:              6.1300009

- temperature:        10.0000000
  free_energy:         6.1289774
  entropy:             0.4150122
  heat_capacity:       1.2923038
  energy:              6.1331276

- temperature:        20.0000000
  free_energy:         6.1140696
  entropy:             2.9550294
  heat_capacity:       7.1571135
  energy:              6.1731702

- temperature:        30.0000000
  free_energy:         6.0648023
  entropy:             7.0215228
  heat_capacity:      13.0089507
  energy:              6.2754480

- temperature:        40.0000000
  free_energy:         5.9728197
  entropy:            11.3649222
  heat_capacity:      17.1428374
  energy:              6.4274166

- temperature:        50.0000000
  free_energy:         5.8381193
  entropy:            15.5348411
  heat_capacity:      20.2321762
  energy:              6.6148613

- temperature:        60.0000000
  free_energy:         5.6629481
  entropy:            19.4596338
  heat_capacity:      22.8495542
  energy:              6.8305261

- temperature:        70.0000000
  free_energy:         5.4496644
  entropy:            23.1631974
  heat_capacity:      25.2323588
  energy:              7.0710882

- temperature:        80.0000000
  free_energy:         5.2003093
  entropy:            26.6788978
  heat_capacity:      27.4477522
  energy:              7.3346211

- temperature:        90.0000000
  free_energy:         4.9166274
  entropy:            30.0320246
  heat_capacity:      29.5027342
  energy:              7.6195096

- temperature:       100.0000000
  free_energy:         4.6001532
  entropy:            33.2396701
  heat_capacity:      31.3911604
  energy:              7.9241202

- temperature:       110.0000000
  free_energy:         4.2522797
  entropy:            36.3135095
  heat_capacity:      33.1096800
  energy:              8.2467657

- temperature:       120.0000000
  free_energy:         3.8743002
  entropy:            39.2621342
  heat_capacity:      34.6611330
  energy:              8.5857563

- temperature:       130.0000000
  free_energy:         3.4674311
  entropy:            42.0925168
  heat_capacity:      36.0536523
  energy:              8.9394582

- temperature:       140.0000000
  free_energy:         3.0328234
  entropy:            44.8108171
  heat_capacity:      37.2987676
  energy:              9.3063378

- temperature:       150.0000000
  free_energy:         2.5715691
  entropy:            47.4227803
  heat_capacity:      38.4096744
  energy:              9.6849862

- temperature:       160.0000000
  free_energy:         2.0847039
  entropy:            49.9339087
  heat_capacity:      39.3999679
  energy:             10.0741293

- temperature:       170.0000000
  free_energy:         1.5732093
  entropy:            52.3495188
  heat_capacity:      40.2828298
  energy:             10.4726275

- temperature:       180.0000000
  free_energy:         1.0380148
  entropy:            54.6747452
  heat_capacity:      41.0705628
  energy:             10.8794689

- temperature:       190.0000000
  free_energy:         0.4799992
  entropy:            56.9145259
  heat_capacity:      41.7743672
  energy:             11.2937592

- temperature:       200.0000000
  free_energy:        -0.1000067
  entropy:            59.0735837
  heat_capacity:      42.4042718
  energy:             11.7147101

- temperature:       210.0000000
  free_energy:        -0.7012184
  entropy:            61.1564112
  heat_capacity:      42.9691572
  energy:             12.1416280

- temperature:       220.0000000
  free_energy:        -1.3228950
  entropy:            63.1672619
  heat_capacity:      43.4768290
  energy:             12.5739026

- temperature:       230.0000000
  free_energy:        -1.9643371
  entropy:            65.1101469
  heat_capacity:      43.9341162
  energy:             13.0109967

- temperature:       240.0000000
  free_energy:        -2.6248840
  entropy:            66.9888371
  heat_capacity:      44.3469760
  energy:             13.4524369

- temperature:       250.0000000
  free_energy:        -3.3039117
  entropy:            68.8068687
  heat_capacity:      44.7205981
  energy:             13.8978055

- temperature:       260.0000000
  free_energy:        -4.0008302
  entropy:            70.5675517
  heat_capacity:      45.0595010
  energy:             14.3467332

- temperature:       270.0000000
  free_energy:        -4.7150819
  entropy:            72.2739809
  heat_capacity:      45.3676208
  energy:             14.7988930

- temperature:       280.0000000
  free_energy:        -5.4461387
  entropy:            73.9290470
  heat_capacity:      45.6483885
  energy:             15.2539945

- temperature:       290.0000000
  free_energy:        -6.1935006
  entropy:            75.5354490
  heat_capacity:      45.9047991
  energy:             15.7117796

- temperature:       300.0000000
  free_energy:        -6.9566938
  entropy:            77.0957064
  heat_capacity:      46.1394709
  energy:             16.1720181

- temperature:       310.0000000
  free_energy:        -7.7352688
  entropy:            78.6121710
  heat_capacity:      46.3546969
  energy:             16.6345042

- temperature:       320.0000000
  free_energy:        -8.5287986
  entropy:            80.0870392
  heat_capacity:      46.5524894
  energy:             17.0990539

- temperature:       330.0000000
  free_energy:        -9.3368778
  entropy:            81.5223624
  heat_capacity:      46.7346175
  energy:             17.5655018

- temperature:       340.0000000
  free_energy:       -10.1591205
  entropy:            82.9200580
  heat_capacity:      46.9026402
  energy:             18.0336993

- temperature:       350.0000000
  free_energy:       -10.9951595
  entropy:            84.2819192
  heat_capacity:      47.0579341
  energy:             18.5035122

- temperature:       360.0000000
  free_energy:       -11.8446450
  entropy:            85.6096239
  heat_capacity:      47.2017173
  energy:             18.9748196

- temperature:       370.0000000
  free_energy:       -12.7072434
  entropy:            86.9047437
  heat_capacity:      47.3350700
  energy:             19.4475118

- temperature:       380.0000000
  free_energy:       -13.5826362
  entropy:            88.1687516
  heat_capacity:      47.4589523
  energy:             19.9214895

- temperature:       390.0000000
  free_energy:       -14.4705193
  entropy:            89.4030294
  heat_capacity:      47.5742193
  energy:             20.3966622

- temperature:       400.0000000
  free_energy:       -15.3706020
  entropy:            90.6088742
  heat_capacity:      47.6816340
  energy:             20.8729477

- temperature:       410.0000000
  free_energy:       -16.2826061
  entropy:            91.7875049
  heat_capacity:      47.7818789
  energy:             21.3502709

- temperature:       420.0000000
  free_energy:       -17.2062652
  entropy:            92.9400681
  heat_capacity:      47.8755654
  energy:             21.8285634

- temperature:       430.0000000
  free_energy:       -18.1413242
  entropy:            94.0676427
  heat_capacity:      47.9632427
  energy:             22.3077622

- temperature:       440.0000000
  free_energy:       -19.0875382
  entropy:            95.1712455
  heat_capacity:      48.0454046
  energy:             22.7878099

- temperature:       450.0000000
  free_energy:       -20.0446724
  entropy:            96.2518351
  heat_capacity:      48.1224963
  energy:             23.2686534

- temperature:       460.0000000
  free_energy:       -21.0125012
  entropy:            97.3103161
  heat_capacity:      48.1949198
  energy:             23.7502442

- temperature:       470.0000000
  free_energy:       -21.9908078
  entropy:            98.3475432
  heat_capacity:      48.2630386
  energy:             24.2325375

- temperature:       480.0000000
  free_energy:       -22.9793839
  entropy:            99.3643243
  heat_capacity:      48.3271820
  energy:             24.7154918

- temperature:       490.0000000
  free_energy:       -23.9780287
  entropy:           100.3614236
  heat_capacity:      48.3876492
  energy:             25.1990689

- temperature:       500.0000000
  free_energy:       -24.9865492
  entropy:           101.3395651
  heat_capacity:      48.4447119
  energy:             25.6832334

- temperature:       510.0000000
  free_energy:       -26.0047591
  entropy:           102.2994347
  heat_capacity:      48.4986176
  energy:             26.1679526

- temperature:       520.0000000
  free_energy:       -27.0324791
  entropy:           103.2416829
  heat_capacity:      48.5495920
  energy:             26.6531960

- temperature:       530.0000000
  free_energy:       -28.0695361
  entropy:           104.1669273
  heat_capacity:      48.5978414
  energy:             27.1389353

- temperature:       540.0000000
  free_energy:       -29.1157630
  entropy:           105.0757543
  heat_capacity:      48.6435542
  energy:             27.6251444

- temperature:       550.0000000
  free_energy:       -30.1709983
  entropy:           105.9687216
  heat_capacity:      48.6869032
  energy:             28.1117985

- temperature:       560.0000000
  free_energy:       -31.2350863
  entropy:           106.8463596
  heat_capacity:      48.7280469
  energy:             28.5988751

- temperature:       570.0000000
  free_energy:       -32.3078761
  entropy:           107.7091732
  heat_capacity:      48.7671307
  energy:             29.0863526

- temperature:       580.0000000
  free_energy:       -33.3892219
  entropy:           108.5576435
  heat_capacity:      48.8042887
  energy:             29.5742113

- temperature:       590.0000000
  free_energy:       -34.4789827
  entropy:           109.3922290
  heat_capacity:      48.8396439
  energy:             30.0624324

- temperature:       600.0000000
  free_energy:       -35.5770217
  entropy:           110.2133670
  heat_capacity:      48.8733101
  energy:             30.5509985

- temperature:       610.0000000
  free_energy:       -36.6832066
  entropy:           111.0214753
  heat_capacity:      48.9053922
  energy:             31.0398933

- temperature:       620.0000000
  free_energy:       -37.7974091
  entropy:           111.8169524
  heat_capacity:      48.9359872
  energy:             31.5291014

- temperature:       630.0000000
  free_energy:       -38.9195048
  entropy:           112.6001797
  heat_capacity:      48.9651847
  energy:             32.0186084

- temperature:       640.0000000
  free_energy:       -40.0493731
  entropy:           113.3715216
  heat_capacity:      48.9930680
  energy:             32.5084007

- temperature:       650.0000000
  free_energy:       -41.1868968
  entropy:           114.1313268
  heat_capacity:      49.0197141
  energy:             32.9984656

- temperature:       660.0000000
  free_energy:       -42.3319623
  entropy:           114.8799294
  heat_capacity:      49.0451946
  energy:             33.4887911

- temperature:       670.0000000
  free_energy:       -43.4844591
  entropy:           115.6176492
  heat_capacity:      49.0695760
  energy:             33.9793659

- temperature:       680.0000000
  free_energy:       -44.6442800
  entropy:           116.3447929
  heat_capacity:      49.0929200
  energy:             34.4701792

- temperature:       690.0000000
  free_energy:       -45.8113207
  entropy:           117.0616546
  heat_capacity:      49.1152845
  energy:             34.9612210

- temperature:       700.0000000
  free_energy:       -46.9854798
  entropy:           117.7685165
  heat_capacity:      49.1367229
  energy:             35.4524818

- temperature:       710.0000000
  free_energy:       -48.1666586
  entropy:           118.4656495
  heat_capacity:      49.1572855
  energy:             35.9439525

- temperature:       720.0000000
  free_energy:       -49.3547612
  entropy:           119.1533138
  heat_capacity:      49.1770189
  energy:             36.4356247

- temperature:       730.0000000
  free_energy:       -50.5496942
  entropy:           119.8317595
  heat_capacity:      49.1959669
  energy:             36.9274903

- temperature:       740.0000000
  free_energy:       -51.7513665
  entropy:           120.5012271
  heat_capacity:      49.2141703
  energy:             37.4195416

- temperature:       750.0000000
  free_energy:       -52.9596895
  entropy:           121.1619478
  heat_capacity:      49.2316675
  energy:             37.9117713

- temperature:       760.0000000
  free_energy:       -54.1745770
  entropy:           121.8141444
  heat_capacity:      49.2484942
  energy:             38.4041727

- temperature:       770.0000000
  free_energy:       -55.3959447
  entropy:           122.4580310
  heat_capacity:      49.2646842
  energy:             38.8967391

- temperature:       780.0000000
  free_energy:       -56.6237106
  entropy:           123.0938141
  heat_capacity:      49.2802689
  energy:             39.3894644

- temperature:       790.0000000
  free_energy:       -57.8577947
  entropy:           123.7216927
  heat_capacity:      49.2952781
  energy:             39.8823426

- temperature:       800.0000000
  free_energy:       -59.0981188
  entropy:           124.3418586
  heat_capacity:      49.3097395
  energy:             40.3753681

- temperature:       810.0000000
  free_energy:       -60.3446067
  entropy:           124.9544967
  heat_capacity:      49.3236793
  energy:             40.8685356

- temperature:       820.0000000
  free_energy:       -61.5971842
  entropy:           125.5597857
  heat_capacity:      49.3371222
  energy:             41.3618400

- temperature:       830.0000000
  free_energy:       -62.8557785
  entropy:           126.1578976
  heat_capacity:      49.3500915
  energy:             41.8552765

- temperature:       840.0000000
  free_energy:       -64.1203188
  entropy:           126.7489990
  heat_capacity:      49.3626090
  energy:             42.3488404

- temperature:       850.0000000
  free_energy:       -65.3907357
  entropy:           127.3332505
  heat_capacity:      49.3746954
  energy:             42.8425272

- temperature:       860.0000000
  free_energy:       -66.6669615
  entropy:           127.9108074
  heat_capacity:      49.3863701
  energy:             43.3363329

- temperature:       870.0000000
  free_energy:       -67.9489300
  entropy:           128.4818199
  heat_capacity:      49.3976516
  energy:             43.8302533

- temperature:       880.0000000
  free_energy:       -69.2365766
  entropy:           129.0464332
  heat_capacity:      49.4085572
  energy:             44.3242847

- temperature:       890.0000000
  free_energy:       -70.5298378
  entropy:           129.6047877
  heat_capacity:      49.4191034
  energy:             44.8184233

- temperature:       900.0000000
  free_energy:       -71.8286519
  entropy:           130.1570194
  heat_capacity:      49.4293057
  energy:             45.3126656

- temperature:       910.0000000
  free_energy:       -73.1329582
  entropy:           130.7032599
  heat_capacity:      49.4391789
  energy:             45.8070083

- temperature:       920.0000000
  free_energy:       -74.4426975
  entropy:           131.2436366
  heat_capacity:      49.4487370
  energy:             46.3014481

- temperature:       930.0000000
  free_energy:       -75.7578118
  entropy:           131.7782730
  heat_capacity:      49.4579930
  energy:             46.7959820

- temperature:       940.0000000
  free_energy:       -77.0782443
  entropy:           132.3072886
  heat_capacity:      49.4669597
  energy:             47.2906070

- temperature:       950.0000000
  free_energy:       -78.4039393
  entropy:           132.8307995
  heat_capacity:      49.4756488
  energy:             47.7853203

- temperature:       960.0000000
  free_energy:       -79.7348423
  entropy:           133.3489181
  heat_capacity:      49.4840717
  energy:             48.2801191

- temperature:       970.0000000
  free_energy:       -81.0709000
  entropy:           133.8617535
  heat_capacity:      49.4922391
  energy:             48.7750009

- temperature:       980.0000000
  free_energy:       -82.4120601
  entropy:           134.3694114
  heat_capacity:      49.5001612
  energy:             49.2699631

- temperature:       990.0000000
  free_energy:       -83.7582713
  entropy:           134.8719946
  heat_capacity:      49.5078477
  energy:             49.7650033

- temperature:      1000.0000000
  free_energy:       -85.1094834
  entropy:           135.3696027
  heat_capacity:      49.5153078
  energy:             50.2601193
