12
Lattice="4.7585869511982235 0.004849888906164977 0.0007526451650340815 2.3744250912070997 4.1257163651723054 -0.0032402370286221576 -0.004156892061476987 0.003269053183888462 12.226410997385731" Properties=species:S:1:pos:R:3:forces:R:3 structure_index=0 total_energy=-36.135284423828125 stress="-0.015105952508747578 3.1819232390262187e-05 2.1774121705675498e-05 3.1882831535767764e-05 -0.015427559614181519 2.0614561435650103e-05 2.1585812646662816e-05 2.060056613117922e-05 -0.008918650448322296" pbc="T T T"
Li       5.71332597       2.10489362       0.28646282      -0.00018155      -0.00007750      -0.00015457
Li       5.71103347       2.10654985       6.35250709       0.00000148      -0.00015488      -0.02071320
Li       3.33104394       3.47489097       2.03799920      -0.00007667      -0.00036914       0.03047273
Li       5.71147268       2.10334558       3.26250319       0.00018785       0.00047170      -0.00795061
Li       3.33266306       0.73298316      10.73464333      -0.00010774       0.00039413      -0.01034985
Ga       3.33009325       3.47600295       4.77882011       0.00013963      -0.00003631       0.05056703
Ga       3.32980845       3.47936307       7.53804109       0.00010616      -0.00029579       0.03111560
Ga       3.33313018       0.73091026       7.85700719      -0.00023656      -0.00013671      -0.01645688
Sn       3.33355611       0.72786443       4.87061478      -0.00028862      -0.00018421      -0.04339869
Sn       3.32899467       3.48162327      11.45549571       0.00035780       0.00059728       0.01253371
Sn       3.33472401       0.72655394       1.43081312      -0.00012689      -0.00038532      -0.01534827
Sn       5.71052154       2.10923553       9.34685612       0.00022506       0.00017675      -0.01031702
12
Lattice="4.45973985356678 0.00865680344013832 -0.007410460193687989 -0.0115047612639529 6.260509169923585 -0.025764028717963006 0.016409559005998112 0.037182959432821745 9.523413516382387" Properties=species:S:1:pos:R:3:forces:R:3 structure_index=1 total_energy=-38.85062026977539 stress="0.013539944775402546 0.0015238223131746054 0.0004795821732841432 0.0015238289488479495 0.0161760114133358 0.0008946283487603068 0.00047955859918147326 0.0008945834706537426 -0.02635807916522026" pbc="T T T"
Li       2.36306133       2.61289573       2.13248997       0.00032634      -0.02888654       0.00419554
Li       0.14020238       0.92098604       3.96741344      -0.00061637       0.04211845      -0.00300082
Li       2.36829775       5.87437664       8.70291156       0.00010093      -0.04387412      -0.00286414
Li       0.13833616       4.16625581       6.89957001      -0.00008321       0.02671211      -0.00342855
Ga       0.12745384       4.25442105       0.61599816      -0.00007852      -0.01863803       0.00114020
Ga       2.36840456       2.50652396       5.39345810       0.00080531       0.02287949      -0.01318924
Sn       2.37309196       2.85191208       8.55006583       0.00115362      -0.01233885       0.00227447
Sn       0.14410148       1.06059999       7.07988286       0.00033691       0.00996894       0.00674749
Sn       2.36351511       5.63499856       5.48408078      -0.00062313       0.04073956      -0.00345145
Sn       0.13369432       1.12589474       0.74668884      -0.00013005      -0.03820955      -0.00395148
Sn       0.13372367       3.94088478       3.79064107      -0.00015212       0.00704848      -0.00174464
Sn       2.35831850       5.71459464       2.28976109      -0.00103969      -0.00751995       0.01727263
12
Lattice="4.129925700173005 0.004392894687945167 -0.002091152211397409 -0.0069571637556165395 6.554146648489672 -0.008387747275459346 0.004835900646173794 0.01042613952592971 9.069784002495394" Properties=species:S:1:pos:R:3:forces:R:3 structure_index=2 total_energy=-36.96730041503906 stress="0.002347236033529043 0.0003305913123767823 0.00026473720208741724 0.0003306477447040379 -0.006270618177950382 -0.0002514866937417537 0.0002648811787366867 -0.00025163483223877847 0.008268779143691063" pbc="T T T"
Li       3.95245566       6.47119695       4.87589894      -0.00026223      -0.03405979       0.02905392
Li       3.95385101       3.19248525       1.98728435       0.00012983      -0.03584132      -0.03126836
Li       1.88985906       4.72583645       6.52091185      -0.00040557       0.03677679      -0.02954768
Li       1.88930039       1.44194513       0.34989438       0.00039874       0.03704828       0.02808829
Ga       3.95596159       3.11801816       5.04000399      -0.00028685       0.01726808      -0.03722609
Ga       1.89321463       1.52898026       6.36604281      -0.00046366      -0.01825565       0.03502451
Ga       3.95038704       6.38998980       1.82407526       0.00001413       0.02009141       0.03617397
Ga       1.88601664       4.80064231       0.50219073       0.00036803      -0.02012070      -0.03536202
Sn       1.88840069       4.76150749       3.51196650      -0.00015661       0.00692833      -0.03380563
Sn       3.95331252       6.43946084       7.88295660       0.00031122      -0.00715233       0.03658242
Sn       1.89175659       1.48558020       3.35593161      -0.00023275       0.00160892       0.03978748
Sn       3.95668285       3.16152563       8.05036366       0.00058573      -0.00429203      -0.03750082
12
Lattice="4.823631235113679 0.006346611174695398 -0.0005683615474427793 -2.4164946541016756 4.176554251630461 0.00011796176042119974 0.0012835712085831066 0.00117535737521885 12.183225814038405" Properties=species:S:1:pos:R:3:forces:R:3 structure_index=3 total_energy=-36.733970642089844 stress="0.01539369486272335 -2.9838063710485585e-05 6.376698820531601e-06 -2.9674502002308145e-05 0.01524154469370842 -2.9890003133914433e-05 6.395454875018913e-06 -3.0101402444415726e-05 0.017952565103769302" pbc="T T T"
Li      -1.74221259       4.11871593       7.23309612       0.00005020      -0.00017934       0.00063768
Li      -1.74389802       4.11880702       1.19286293      -0.00002315      -0.00008485      -0.00963430
Li       0.66939335       2.73032343       2.85539060      -0.00014021      -0.00000124      -0.00194508
Li      -1.74137745       4.11675701      10.24734702      -0.00028804       0.00037298       0.00587993
Ga       3.08403252       1.33886689       5.93383145      -0.00024063       0.00005590      -0.04166411
Ga       3.08542385       1.33705864       8.76561501      -0.00013404      -0.00007033      -0.03992941
Ga       3.08453670       1.33733469      11.47709863       0.00029585       0.00006081      -0.00895651
Ga       0.67033269       2.72929765       5.70491768       0.00023382      -0.00004029       0.02452379
Sn       3.08280877       1.33962116       2.32741515       0.00022668      -0.00002964      -0.01557905
Sn      -1.74376446       4.12053047       4.24866934      -0.00003148      -0.00011970       0.02577849
Sn       0.67178252       2.72777456       8.59254020      -0.00014730       0.00003017       0.00917582
Sn       0.66961435       2.72711618      -0.07464068       0.00019830       0.00000552       0.05171280
4
Lattice="4.362853644124144 -0.0006596425980101354 0.006536534254565706 0.007038596712994134 4.542959868511302 0.003418249976969473 -0.0006696515651437649 -0.00040815880221760435 4.541592664929318" Properties=species:S:1:pos:R:3:forces:R:3 structure_index=4 total_energy=-13.074068069458008 stress="0.08293072134256363 0.022193491458892822 0.0216489527374506 0.022193439304828644 0.01293572224676609 0.012651951052248478 0.021648958325386047 0.012652046047151089 0.008287735283374786" pbc="T T T"
Li       0.67259868       3.56547087       1.31929803      -0.00020666      -0.00141978      -0.00266403
Ga       0.66907675       1.29266148       3.58701211      -0.00115859       0.00100293       0.00472256
Sn       2.85074972       1.29212155       1.32333560       0.00021960       0.00253409      -0.00956631
Sn       2.85324602       3.56428710       3.59165434       0.00114565      -0.00211723       0.00750776
11
Lattice="4.392905623975973 -0.0024958936648626817 1.532237137768211 1.3713451817979136 6.327203558490532 3.142433880593596 -0.05119238076095516 0.029868444444306606 7.2086793732814" Properties=species:S:1:pos:R:3:forces:R:3 structure_index=5 total_energy=-29.0991268157959 stress="0.009255827404558659 -0.00436418829485774 -0.0076752761378884315 -0.004364336840808392 0.02092946693301201 0.012448543682694435 -0.007675320375710726 0.012448698282241821 0.028348661959171295" pbc="T T T"
Li       3.31338831       3.63311144       5.11531166       0.00360713       0.03382705      -0.00752011
Li       2.75051117       1.11965039       6.72486990      -0.00865778      -0.02041897       0.02786407
Li       5.05701825       4.51766821       7.17875643       0.00054093       0.00572364      -0.00071210
Li       1.91229102       2.92698071       2.06749427      -0.00224047      -0.03306151       0.00586164
Li       4.51098324       2.07222753       8.74112856      -0.00000963      -0.00505001       0.00062589
Li       3.71407767       0.97946873       3.96093068      -0.00992675       0.02854047       0.03625016
Li       1.51388814       5.58415956       3.21747686       0.01002880      -0.02887295      -0.03462949
Li       2.42483255       5.46916148       7.66353719       0.00916230       0.01989762      -0.02586409
Ga       1.92807997       0.11694574       2.01967843       0.00001080      -0.00135749      -0.00181387
Sn       4.12846438       4.64217002       9.84139365      -0.00933939       0.02276152       0.03214664
Sn       1.04727354       1.94668780       4.54900413       0.00682406      -0.02198934      -0.03220876
10
Lattice="3.302368217546476 -0.00013359260283080289 5.0030023722972744e-05 0.00022654689245289248 3.3022479862466043 -9.920573941117588e-05 -0.00039461481070837066 0.0011698870683438355 17.90886057389885" Properties=species:S:1:pos:R:3:forces:R:3 structure_index=6 total_energy=-30.93902587890625 stress="0.03473735600709915 0.00032265481422655284 -0.00015851060743443668 0.00032267457572743297 0.03352313116192818 0.00045255362056195736 -0.00015864048327784985 0.000452572712674737 -0.033130280673503876" pbc="T T T"
Li       3.17423350       0.00424956       4.52290624       0.00031387       0.00028627       0.00816908
Li       3.17435330       0.00546917      14.97886623      -0.00003340       0.00052756      -0.02534896
Li       3.17428627       0.00434750       0.77080884       0.00011027       0.00020731       0.00393160
Li       3.17437418       0.00580905      12.01823681      -0.00000103      -0.00069284       0.01567738
Li       3.17489964       0.00513783       8.29747727      -0.00077433      -0.00044080      -0.00304916
Ga       1.52349190       1.65689303      13.49544155      -0.00055764      -0.00018995       0.00336025
Sn       1.52334045       1.65553946       2.66253076      -0.00023263      -0.00007679      -0.01272525
Sn       1.52301697       1.65620721      10.17796395       0.00085140       0.00071154      -0.01239579
Sn       1.52288852       1.65697657      16.81161137       0.00029277      -0.00044615       0.00506418
Sn       1.52345706       1.65579678       6.39324876       0.00003072       0.00011386       0.01731669
12
Lattice="4.621334221903472 0.002285833739681503 -0.0031657684998219844 -0.005483248807782048 6.454089706951494 -0.001083991877404322 0.008599791209794502 0.014480196539343262 8.594405667702475" Properties=species:S:1:pos:R:3:forces:R:3 structure_index=7 total_energy=-36.808345794677734 stress="-0.023590372875332832 -0.00020367882098071277 5.306969796947669e-06 -0.00020365772070363164 -0.029081808403134346 0.000745378783904016 5.159082320460584e-06 0.0007453153957612813 -0.02966403402388096" pbc="T T T"
Li       1.35042036       3.97740650       4.21272376      -0.00037166       0.01053305       0.04135769
Li       3.65715596       4.03224324       0.92298991       0.00021773      -0.00909322      -0.04237547
Li       1.35352223       0.75905073       5.21860222       0.00015292       0.00356756      -0.03998071
Li       3.66639847       0.81496349       8.51159774       0.00004201      -0.00482763       0.03999858
Ga       3.66067415       5.38556515       6.09381296      -0.00025928       0.04782103      -0.00372038
Ga       1.34711037       5.85667161       1.79719417       0.00002792      -0.04764232      -0.00375385
Ga       1.35398084       2.64263251       7.63569802       0.00026530      -0.04769658       0.00456744
Ga       3.66028311       2.15300696       3.33825860       0.00003179       0.04795041       0.00327858
Sn       1.35107109       5.43323122       7.64414517      -0.00013637       0.00865279      -0.00271671
Sn       3.65903311       5.81706292       3.34461199       0.00005903      -0.00997668      -0.00053979
Sn       1.34833844       2.19273796       1.79016078      -0.00001307       0.01019620       0.00192467
Sn       3.66362654       2.59504490       6.08543788      -0.00001632      -0.00948462       0.00196000
7
Lattice="4.407868044890464 0.0028646239953788208 1.2887907325856123 2.0183171401450237 3.9182172127259234 1.2878373403872385 0.01113098922835816 0.010594709308498184 8.188757965084921" Properties=species:S:1:pos:R:3:forces:R:3 structure_index=8 total_energy=-20.79287338256836 stress="-0.019400915130972862 -0.0006261082016862929 0.002318610670045018 -0.000626037479378283 -0.01906704530119896 0.0015101790195330977 0.0023185093887150288 0.0015100226737558842 -0.033095259219408035" pbc="T T T"
Li       2.12355285       1.37506285       8.05648450      -0.00257920      -0.00157669       0.00576804
Li       5.35412549       3.34443432       5.16700111      -0.00421024      -0.00221715       0.01929110
Li       0.56904079       0.42549618       5.17524140       0.01013045       0.00646661      -0.03463100
Ga       3.76785048       2.37565145       2.39214231       0.01517175       0.00935850      -0.04543902
Ga       2.90146234       1.84848225       5.37950966      -0.00929838      -0.00539721       0.04007564
Sn       4.57387497       2.86969226       7.85372943      -0.00569713      -0.00370710       0.01870433
Sn       1.35114085       0.90163279       2.48173304      -0.00351725      -0.00292697      -0.00376904
4
Lattice="3.7641026699511246 0.003079472788936602 -0.0010808009613417179 -0.0027425185328534634 3.7639437348830307 -0.0020933660055974476 7.187673631364042e-05 0.0024458433556433256 5.823875543979694" Properties=species:S:1:pos:R:3:forces:R:3 structure_index=9 total_energy=-12.027627944946289 stress="-0.03757059574127197 0.0025141111109405756 -0.00013134018809068948 0.0025141898076981306 -0.03802689537405968 -0.001206180895678699 -0.00013110328291077167 -0.0012062310706824064 -0.0003598563198465854" pbc="T T T"
Li       1.43999178       2.04592111       2.47124584       0.00046502      -0.00002901       0.00103344
Ga       3.32312415       0.16584108       3.89000845       0.00120351       0.00021951       0.01617103
Ga       3.32481396       0.16506485       1.05489266      -0.00130864      -0.00020877      -0.01746610
Sn       1.44076210       2.04709850       5.38353742      -0.00035987       0.00001827       0.00026162
10
Lattice="4.489092242392302 0.002661249153111439 -0.0011072714461110795 -2.246400801536454 3.887006157556799 0.001143685934249011 0.0031072706931148985 -0.0012225570547888538 11.904371474192477" Properties=species:S:1:pos:R:3:forces:R:3 structure_index=10 total_energy=-29.694576263427734 stress="0.02644444815814495 0.0003123872447758913 -5.1633855036925524e-05 0.000312449672492221 0.02698323130607605 0.00010190548346145079 -5.165108450455591e-05 0.00010168771405005828 0.005291883833706379" pbc="T T T"
Li       1.32094017       0.06233990       1.36056095      -0.00004573      -0.00028165      -0.02625932
Li       1.32293094       0.06037075      10.29771205       0.00004921       0.00058737      -0.00304961
Ga       1.31920546       2.65402308       0.01980650      -0.00034632       0.00023874       0.01472681
Ga       1.32058525       2.65445338       5.40771937       0.00004155      -0.00047268      -0.00020774
Ga       3.56624846       1.35864882       8.83895148       0.00008580       0.00065963      -0.00180109
Ga       1.32083126       2.65389891       8.43190089       0.00023753      -0.00070609       0.01094097
Ga       1.32048571       2.65460556       2.67484132      -0.00006595      -0.00046014      -0.00780376
Ga       3.56732449       1.35790869      11.55965460       0.00042295       0.00001099       0.01658711
Sn       3.56603377       1.35946054       3.74413789      -0.00049308       0.00037016      -0.05148140
Sn       1.32179430       0.06215187       6.84843531       0.00011404       0.00005367       0.04834804
13
Lattice="4.131521571042509 0.00766538153237661 -0.0007547008937621603 -2.0759245557595736 4.766869310178375 0.35389589753001816 0.0010917247462662086 0.36098845960452236 12.713186315556742" Properties=species:S:1:pos:R:3:forces:R:3 structure_index=11 total_energy=-38.235599517822266 stress="-0.004541137721389532 -0.00668693333864212 -0.0016266594175249338 -0.00668699573725462 -0.008427215740084648 0.002068920060992241 -0.0016267107566818595 0.0020687959622591734 -0.008721170015633106" pbc="T T T"
Li      -0.69206781       2.77939319       1.39165911       0.00031527      -0.00813787      -0.00391310
Li      -0.69460244       4.11625349       7.65260196       0.00131250       0.00057640      -0.01128296
Li       1.37504580       2.30267486       6.42150432       0.00038796      -0.01578083      -0.00021768
Li      -0.68933820       2.31452729      11.00173908       0.00000035      -0.01212766       0.01154321
Li       1.37379734       3.22019762       9.30081055       0.00033857      -0.01789407       0.00501031
Ga       1.38042746       0.37485361       9.89211097       0.00090011      -0.03089300      -0.00478874
Ga       1.36943842       4.57745690       2.48903482       0.00105611       0.00412034       0.00539146
Ga       1.37347403       4.13970252      12.02003295      -0.00228658       0.01729712       0.01411653
Ga      -0.69349550       3.47756092       4.55044020       0.00110052       0.01605792       0.02927909
Ga       3.44419884       1.33744242       8.39438470      -0.00133934       0.01360290      -0.01503720
Sn       1.37801230       0.84232101       0.12674524       0.00019964       0.03671264      -0.02001078
Sn       3.44488807       0.42277757       5.62614099      -0.00021900      -0.00810541      -0.02498394
Sn       1.37658420       1.64914495       3.36613435      -0.00176609       0.00457150       0.01489384
14
Lattice="4.465918159193427 -0.0013162836774923542 -0.8902107997255294 0.002147478866559516 4.538638005989464 0.004814377038059609 -0.030967057845534045 -0.010474894734617463 11.476720194728374" Properties=species:S:1:pos:R:3:forces:R:3 structure_index=12 total_energy=-36.79701614379883 stress="0.031153088435530663 0.000424502301029861 0.005316059570759535 0.000424541620304808 0.02310086041688919 0.003090633312240243 0.0053162239491939545 0.0030905851162970066 0.01687874086201191" pbc="T T T"
Li       2.83664376       2.53797047       7.79843310       0.00316312      -0.00075217       0.00986312
Li       1.57114727       2.54381276       1.45130163      -0.00105539      -0.00040656       0.00457934
Li       2.16423623       2.54037955       4.42962137      -0.00571507       0.00023550      -0.03488999
Li       1.24470103       0.27606097      -0.17709630      -0.00614537      -0.00096170      -0.02942126
Li       3.13223130       0.26648399       9.28344272       0.00433489      -0.00014497       0.01112280
Li       3.80380860       0.27392390       1.00915778       0.00108027      -0.00105706       0.00861606
Li       2.50021907       0.26984902       6.11124889       0.00381233      -0.00028422       0.02171167
Li       0.89212515       2.53544850       9.68531696       0.00119187       0.00046431       0.00657815
Li       4.09743133       2.54161216       2.48162686       0.00310296      -0.00041828       0.01078570
Li       4.40259954       0.27016373       4.01263743      -0.00769314       0.00078046      -0.04079839
Ga       0.60772764       0.26726384       8.26284433      -0.00203477       0.00234259      -0.00544855
Ga       1.87000041       0.27253147       2.95511116      -0.00372373       0.00059475      -0.02013582
Sn       0.26096220       2.53916789       6.52407224       0.00817881      -0.00154708       0.04724861
Sn       3.48053501       2.54448654      -0.61322459       0.00150322       0.00115438       0.01018853
4
Lattice="4.336105683477908 -0.0008312918621853686 0.00040102160702845256 0.0009085134320555793 4.291629087451465 0.0004402187522292812 -0.00035988804556507845 -0.00025379506412353647 4.291474885158508" Properties=species:S:1:pos:R:3:forces:R:3 structure_index=13 total_energy=-12.158448219299316 stress="-0.09679888188838959 0.00047056280891411006 0.0001758990838425234 0.0004705275350715965 0.07116392999887466 0.000533387647010386 0.000175725799635984 0.0005333249573595822 0.06999312341213226" pbc="T T T"
Li       2.58010674       2.29689100       2.21916083       0.00010854      -0.00036385       0.00048102
Ga       0.41188478       0.15152820       2.21874779      -0.00075350      -0.00055357       0.00064264
Ga       0.41209870       2.29666052       0.07326456       0.00031413       0.00106347      -0.00008375
Sn       2.57980297       0.15078262       0.07357258       0.00033082      -0.00014605      -0.00103991
12
Lattice="4.45965948435385 -0.0004526561164614802 -0.00043425478704589977 0.00053643801484966 6.6265223823037 -0.05065689329565083 2.771904742836069e-05 -0.04209021909007427 8.38419852006161" Properties=species:S:1:pos:R:3:forces:R:3 structure_index=14 total_energy=-35.90809631347656 stress="-0.02412944845855236 -0.00013745548494625837 -5.147658885107376e-05 -0.00013754954852629453 -0.011506296694278717 -5.644787961500697e-05 -5.161540684639476e-05 -5.6337066780542955e-05 -0.025358639657497406" pbc="T T T"
Li       0.00532822       6.51661664       2.42285279       0.00000395      -0.00251999      -0.03456352
Li       2.23514383       3.33521390       6.97195311      -0.00001873       0.00776891       0.00702975
Li       0.00485039       3.39242553       1.46983900       0.00003441       0.00015576       0.01709717
Li       2.23539116       6.55323102       5.73825085      -0.00005130      -0.01320378       0.00691199
Ga       0.00494761       1.86957333       4.93357419       0.00005635      -0.04902330      -0.01656366
Ga       2.23505237       5.21697386       0.68459116      -0.00004567      -0.01142506       0.00947623
Ga       0.00516220       5.16628661       7.66911560       0.00024347      -0.00521032       0.01096711
Ga       2.23489906       4.71343282       3.23733052       0.00009794       0.03244835      -0.00571196
Ga       2.23526636       1.20567235       0.77833688      -0.00040877       0.02084138       0.00866105
Sn       0.00522415       4.65946660       4.90668005      -0.00001220       0.01253116       0.00124754
Sn       2.23465158       1.92666450       3.38846620       0.00003100      -0.01039864       0.01041579
Sn       0.00531844       1.34541759       7.59947740       0.00006952       0.01803554      -0.01496752
4
Lattice="4.062339694151248 -0.001647814127204437 0.00583701383474945 0.0016949204619323855 4.0627255656010455 0.0015457364896895587 -0.005082568849564753 -0.001345652971236534 4.433913290357466" Properties=species:S:1:pos:R:3:forces:R:3 structure_index=15 total_energy=-11.800215721130371 stress="0.1007576733827591 0.00044882239308208227 0.004158932715654373 0.0004487759724725038 0.10265423357486725 0.0010959957726299763 0.00415891595184803 0.0010960411746054888 -0.02294314093887806" pbc="T T T"
Li       0.29762210       3.69056594       1.38440040      -0.00083650       0.00025390      -0.00077798
Li       2.32752688       1.65854256       1.38675080       0.00046655      -0.00046281      -0.00114698
Ga       0.29395956       1.65885235       3.60073587      -0.00038735      -0.00168658      -0.00011886
Sn       2.32585589       3.68888554       3.60370277       0.00075729       0.00189548       0.00204382
20
Lattice="8.547967055548265 0.09063133500315157 -1.4852694631356524 -2.6478072334754033 5.922060037974062 -3.659892228334156 -0.07771548673720458 0.018867154159168033 7.4491084952330775" Properties=species:S:1:pos:R:3:forces:R:3 structure_index=16 total_energy=-57.76106643676758 stress="-0.01781655289232731 -0.008115380071103573 0.00160137505736202 -0.008115580305457115 -0.009524418041110039 0.005602091085165739 0.0016014711000025272 0.0056022596545517445 -0.009816980920732021" pbc="T T T"
Li       2.04298337       0.21638368       3.54538355      -0.01771585      -0.00460009       0.01137201
Li       7.19272813       2.74555189      -0.54834703      -0.00037244       0.00524607       0.00374312
Li       0.87684001       1.03503207       0.90313831      -0.00083670       0.01277100      -0.00147725
Li       5.92596322       2.62040144       2.09990535      -0.00736413       0.00443820       0.00825533
Li       1.40758706       4.99691833       1.89154230       0.00293229      -0.00279047      -0.01053071
Li       7.91907966       1.28410052       4.09348078       0.00240129      -0.01433975      -0.00975042
Li       4.31805956       5.29036220       2.33166295       0.00740621      -0.00878882       0.01302368
Li       4.56439198       3.84547279      -0.29363819       0.01441101       0.01794385      -0.00226707
Li       0.46869617       2.76470480       3.45709956      -0.01000910       0.00689134      -0.00961386
Li       6.71505183       4.27624969      -3.27930189      -0.00133907       0.00289234       0.00298604
Li       3.01916506       4.00351464      -2.92678245       0.00017824      -0.01465129       0.00333371
Ga       2.58457879       1.50032218      -1.45264029       0.01137997       0.01318984      -0.00887082
Ga       2.59042914       5.82374219      -0.65681826      -0.01032851      -0.01203897       0.00606143
Ga       5.09911221       0.97912712       0.11734581      -0.00632226      -0.00130378       0.00085776
Ga       0.47629150       5.45557886      -2.77436996       0.00478547       0.01005190       0.00446432
Sn      -1.53015795       4.92468791       2.62980257       0.00578360      -0.00729361       0.01131123
Sn       5.12793577       1.96296847       4.86966591       0.02508061       0.00938620       0.00558591
Sn       0.83946622       3.52708170      -0.68923199      -0.02512211      -0.00863392      -0.00536748
Sn       3.08370761       2.51652423       1.93972650       0.00633475      -0.01044931      -0.00738675
Sn       7.59194623       0.32703749       1.38231697      -0.00128334       0.00207932      -0.01573023
5
Lattice="4.36290702880863 -0.00023561867513151427 1.7373515681772358 1.833820988294434 3.958157161333268 1.736954371155297 0.05199564122129799 0.03418011127554691 6.2062600052333154" Properties=species:S:1:pos:R:3:forces:R:3 structure_index=17 total_energy=-15.351700782775879 stress="-0.053168218582868576 0.0049623833037912846 -0.022154493257403374 0.004962481092661619 -0.05869027599692345 -0.014239524491131306 -0.022154340520501137 -0.014239904470741749 -0.00829907413572073" pbc="T T T"
Li       2.92790035       1.06256311       4.64165975       0.00895404       0.00587574      -0.02461329
Li       2.53118904       3.59627802       5.63192546      -0.00903612      -0.00595545       0.02527210
Ga       1.78636582       0.33278022       1.16534472       0.00025077       0.00060879       0.00074411
Sn       4.36277214       1.97920893       7.37940728      -0.01366647      -0.00858905       0.03436342
Sn       5.45864297       2.67885537       4.63310774       0.01349778       0.00805995      -0.03576633
4
Lattice="4.031827589023649 0.00031753943909357854 2.3275027735952714 1.3437040697187812 3.8012133686055503 2.325808923849714 0.000348858472152902 0.00028745565895975465 4.655024507126001" Properties=species:S:1:pos:R:3:forces:R:3 structure_index=18 total_energy=-11.746607780456543 stress="0.04699172452092171 -0.0011515783844515681 -0.0017648952780291438 -0.001151449978351593 0.043738506734371185 -0.00208268198184669 -0.0017648315988481045 -0.002082831459119916 0.0437748022377491" pbc="T T T"
Li       1.04275175       2.65706060       6.03709398       0.00058126      -0.00053354       0.00110291
Li       2.38642275       0.75573723       3.70949963       0.00092624       0.00117376       0.00301407
Ga       2.38746738       3.60726249       3.70985484      -0.00238590      -0.00075602      -0.00186949
Sn       3.73037541       1.70657521       6.03797947       0.00087840       0.00011579      -0.00224749
16
Lattice="5.018116989147967 0.0009486683808674421 0.00042255631430946234 -0.0004773455787170783 6.27378518442629 -0.05336169385046579 -0.0011908562607204109 -0.04833977159566668 10.70329734863412" Properties=species:S:1:pos:R:3:forces:R:3 structure_index=19 total_energy=-49.17059326171875 stress="0.0007941106450743973 0.00014608680794481188 -0.00013252306962385774 0.00014610627840738744 0.0008034251513890922 -0.0004500309005379677 -0.00013239620602689683 -0.0004500025534071028 -0.0018714371835812926" pbc="T T T"
Li       3.38399754       2.92476013       3.43827625       0.00007268       0.00861278      -0.02135431
Li       0.87535464       1.29443858       4.44801777       0.00010354      -0.00276152      -0.01067195
Li       0.87511296       4.42829784       4.48207255       0.00044482      -0.01890801       0.02455159
Li       3.38447416       2.88789138       8.86599991      -0.00014230       0.00063058       0.00514594
Li       0.87472217       1.32127828       9.84703034       0.00056971       0.02920910       0.00712736
Li       3.38490372       5.97639393       8.96733306      -0.00091735       0.02019840       0.01420667
Ga       3.38515617       4.48659888       0.81031429      -0.00064798       0.01577194       0.00330994