phonopy:
  version: "2.37.1"
  frequency_unit_conversion_factor: 15.633302
  symmetry_tolerance: 1.00000e-05

space_group:
  type: "P1"
  number: 1
  Hall_symbol: "P 1"

primitive_matrix:
- [ -1.000000000000000, -0.000000000000000,  0.000000000000000 ]
- [  0.000000000000000,  1.000000000000000,  0.000000000000000 ]
- [  0.000000000000000,  0.000000000000000, -1.000000000000000 ]

supercell_matrix:
- [   2,   0,   0 ]
- [   0,   2,   0 ]
- [   0,   0,   1 ]

primitive_cell:
  lattice:
  - [    -5.686923922682769,     0.000000000000000,     0.000000000000000 ] # a
  - [    -0.000649496840405,     6.367541223611180,     0.000000000000000 ] # b
  - [    -0.000585302972622,     2.711505445231028,   -10.520616050115210 ] # c
  points:
  - symbol: Li # 1
    coordinates: [  0.148016430274951,  0.390299529223002,  0.120290126237528 ]
    mass: 6.940000
  - symbol: Li # 2
    coordinates: [  0.965165757789761,  0.759999940835265,  0.867244245485610 ]
    mass: 6.940000
  - symbol: Li # 3
    coordinates: [  0.965637970331996,  0.021774804051743,  0.373196642550612 ]
    mass: 6.940000
  - symbol: Li # 4
    coordinates: [  0.465392562306954,  0.758520173212867,  0.367396661926677 ]
    mass: 6.940000
  - symbol: Li # 5
    coordinates: [  0.465156146595084,  0.023127613985682,  0.873193378784820 ]
    mass: 6.940000
  - symbol: Li # 6
    coordinates: [  0.645721587457688,  0.391216362477686,  0.620348114226586 ]
    mass: 6.940000
  - symbol: Sn # 7
    coordinates: [  0.139981133860790,  0.645949171291597,  0.607764885476700 ]
    mass: 118.710000
  - symbol: Sn # 8
    coordinates: [  0.641665148582809,  0.135516662271824,  0.133136820332684 ]
    mass: 118.710000
  - symbol: Sn # 9
    coordinates: [  0.644865165533651,  0.891231196693209,  0.620251907783513 ]
    mass: 118.710000
  - symbol: Sn # 10
    coordinates: [  0.139818184226653,  0.136690305870650,  0.632624870360438 ]
    mass: 118.710000
  - symbol: Sn # 11
    coordinates: [  0.146423391480589,  0.890431651042934,  0.120274565247921 ]
    mass: 118.710000
  - symbol: Sn # 12
    coordinates: [  0.455804803526785,  0.521765988033897,  0.860941055039797 ]
    mass: 118.710000
  - symbol: Sn # 13
    coordinates: [  0.641656329167937,  0.645084618117126,  0.107472746851401 ]
    mass: 118.710000
  - symbol: Sn # 14
    coordinates: [  0.955849017915750,  0.260905146564250,  0.879458931522540 ]
    mass: 118.710000
  - symbol: Sn # 15
    coordinates: [  0.456394829140096,  0.260132076529000,  0.379461148058188 ]
    mass: 118.710000
  - symbol: Sn # 16
    coordinates: [  0.956216853585208,  0.520730966667154,  0.361158533000167 ]
    mass: 118.710000
  reciprocal_lattice: # without 2pi
  - [    -0.175841986563495,    -0.000017936093489,     0.000005160061162 ] # a*
  - [    -0.000000000000000,     0.157046490141587,     0.040475996001077 ] # b*
  - [    -0.000000000000000,     0.000000000000000,    -0.095051468016367 ] # c*

unit_cell:
  lattice:
  - [     5.686923922682769,     0.000000000000000,     0.000000000000000 ] # a
  - [    -0.000649496840405,     6.367541223611179,     0.000000000000000 ] # b
  - [     0.000585302972622,    -2.711505445231028,    10.520616050115208 ] # c
  points:
  - symbol: Li # 1
    coordinates: [  0.851983569725049,  0.390299529223002,  0.879709873762472 ]
    mass: 6.940000
    reduced_to: 1
  - symbol: Li # 2
    coordinates: [  0.034834242210239,  0.759999940835265,  0.132755754514390 ]
    mass: 6.940000
    reduced_to: 2
  - symbol: Li # 3
    coordinates: [  0.034362029668004,  0.021774804051743,  0.626803357449389 ]
    mass: 6.940000
    reduced_to: 3
  - symbol: Li # 4
    coordinates: [  0.534607437693046,  0.758520173212867,  0.632603338073323 ]
    mass: 6.940000
    reduced_to: 4
  - symbol: Li # 5
    coordinates: [  0.534843853404916,  0.023127613985682,  0.126806621215180 ]
    mass: 6.940000
    reduced_to: 5
  - symbol: Li # 6
    coordinates: [  0.354278412542312,  0.391216362477686,  0.379651885773414 ]
    mass: 6.940000
    reduced_to: 6
  - symbol: Sn # 7
    coordinates: [  0.860018866139210,  0.645949171291597,  0.392235114523300 ]
    mass: 118.710000
    reduced_to: 7
  - symbol: Sn # 8
    coordinates: [  0.358334851417191,  0.135516662271824,  0.866863179667316 ]
    mass: 118.710000
    reduced_to: 8
  - symbol: Sn # 9
    coordinates: [  0.355134834466349,  0.891231196693209,  0.379748092216487 ]
    mass: 118.710000
    reduced_to: 9
  - symbol: Sn # 10
    coordinates: [  0.860181815773347,  0.136690305870650,  0.367375129639563 ]
    mass: 118.710000
    reduced_to: 10
  - symbol: Sn # 11
    coordinates: [  0.853576608519411,  0.890431651042934,  0.879725434752080 ]
    mass: 118.710000
    reduced_to: 11
  - symbol: Sn # 12
    coordinates: [  0.544195196473215,  0.521765988033897,  0.139058944960203 ]
    mass: 118.710000
    reduced_to: 12
  - symbol: Sn # 13
    coordinates: [  0.358343670832063,  0.645084618117127,  0.892527253148600 ]
    mass: 118.710000
    reduced_to: 13
  - symbol: Sn # 14
    coordinates: [  0.044150982084250,  0.260905146564250,  0.120541068477460 ]
    mass: 118.710000
    reduced_to: 14
  - symbol: Sn # 15
    coordinates: [  0.543605170859904,  0.260132076529000,  0.620538851941812 ]
    mass: 118.710000
    reduced_to: 15
  - symbol: Sn # 16
    coordinates: [  0.043783146414792,  0.520730966667154,  0.638841466999833 ]
    mass: 118.710000
    reduced_to: 16

supercell:
  lattice:
  - [    11.373847845365537,     0.000000000000000,     0.000000000000000 ] # a
  - [    -0.001298993680810,    12.735082447222357,     0.000000000000000 ] # b
  - [     0.000585302972622,    -2.711505445231028,    10.520616050115208 ] # c
  points:
  - symbol: Li # 1
    coordinates: [  0.425991784862524,  0.195149764611501,  0.879709873762472 ]
    mass: 6.940000
    reduced_to: 1
  - symbol: Li # 2
    coordinates: [  0.925991784862524,  0.195149764611501,  0.879709873762472 ]
    mass: 6.940000
    reduced_to: 1
  - symbol: Li # 3
    coordinates: [  0.425991784862524,  0.695149764611501,  0.879709873762472 ]
    mass: 6.940000
    reduced_to: 1
  - symbol: Li # 4
    coordinates: [  0.925991784862524,  0.695149764611501,  0.879709873762472 ]
    mass: 6.940000
    reduced_to: 1
  - symbol: Li # 5
    coordinates: [  0.017417121105119,  0.379999970417632,  0.132755754514390 ]
    mass: 6.940000
    reduced_to: 5
  - symbol: Li # 6
    coordinates: [  0.517417121105119,  0.379999970417632,  0.132755754514390 ]
    mass: 6.940000
    reduced_to: 5
  - symbol: Li # 7
    coordinates: [  0.017417121105119,  0.879999970417632,  0.132755754514390 ]
    mass: 6.940000
    reduced_to: 5
  - symbol: Li # 8
    coordinates: [  0.517417121105119,  0.879999970417632,  0.132755754514390 ]
    mass: 6.940000
    reduced_to: 5
  - symbol: Li # 9
    coordinates: [  0.017181014834002,  0.010887402025871,  0.626803357449389 ]
    mass: 6.940000
    reduced_to: 9
  - symbol: Li # 10
    coordinates: [  0.517181014834002,  0.010887402025871,  0.626803357449389 ]
    mass: 6.940000
    reduced_to: 9
  - symbol: Li # 11
    coordinates: [  0.017181014834002,  0.510887402025871,  0.626803357449389 ]
    mass: 6.940000
    reduced_to: 9
  - symbol: Li # 12
    coordinates: [  0.517181014834002,  0.510887402025871,  0.626803357449389 ]
    mass: 6.940000
    reduced_to: 9
  - symbol: Li # 13
    coordinates: [  0.267303718846523,  0.379260086606433,  0.632603338073323 ]
    mass: 6.940000
    reduced_to: 13
  - symbol: Li # 14
    coordinates: [  0.767303718846523,  0.379260086606433,  0.632603338073323 ]
    mass: 6.940000
    reduced_to: 13
  - symbol: Li # 15
    coordinates: [  0.267303718846523,  0.879260086606434,  0.632603338073323 ]
    mass: 6.940000
    reduced_to: 13
  - symbol: Li # 16
    coordinates: [  0.767303718846523,  0.879260086606434,  0.632603338073323 ]
    mass: 6.940000
    reduced_to: 13
  - symbol: Li # 17
    coordinates: [  0.267421926702458,  0.011563806992841,  0.126806621215180 ]
    mass: 6.940000
    reduced_to: 17
  - symbol: Li # 18
    coordinates: [  0.767421926702458,  0.011563806992841,  0.126806621215180 ]
    mass: 6.940000
    reduced_to: 17
  - symbol: Li # 19
    coordinates: [  0.267421926702458,  0.511563806992841,  0.126806621215180 ]
    mass: 6.940000
    reduced_to: 17
  - symbol: Li # 20
    coordinates: [  0.767421926702458,  0.511563806992841,  0.126806621215180 ]
    mass: 6.940000
    reduced_to: 17
  - symbol: Li # 21
    coordinates: [  0.177139206271156,  0.195608181238843,  0.379651885773414 ]
    mass: 6.940000
    reduced_to: 21
  - symbol: Li # 22
    coordinates: [  0.677139206271156,  0.195608181238843,  0.379651885773414 ]
    mass: 6.940000
    reduced_to: 21
  - symbol: Li # 23
    coordinates: [  0.177139206271156,  0.695608181238843,  0.379651885773414 ]
    mass: 6.940000
    reduced_to: 21
  - symbol: Li # 24
    coordinates: [  0.677139206271156,  0.695608181238843,  0.379651885773414 ]
    mass: 6.940000
    reduced_to: 21
  - symbol: Sn # 25
    coordinates: [  0.430009433069605,  0.322974585645799,  0.392235114523300 ]
    mass: 118.710000
    reduced_to: 25
  - symbol: Sn # 26
    coordinates: [  0.930009433069605,  0.322974585645799,  0.392235114523300 ]
    mass: 118.710000
    reduced_to: 25
  - symbol: Sn # 27
    coordinates: [  0.430009433069605,  0.822974585645799,  0.392235114523300 ]
    mass: 118.710000
    reduced_to: 25
  - symbol: Sn # 28
    coordinates: [  0.930009433069605,  0.822974585645799,  0.392235114523300 ]
    mass: 118.710000
    reduced_to: 25
  - symbol: Sn # 29
    coordinates: [  0.179167425708595,  0.067758331135912,  0.866863179667316 ]
    mass: 118.710000
    reduced_to: 29
  - symbol: Sn # 30
    coordinates: [  0.679167425708595,  0.067758331135912,  0.866863179667316 ]
    mass: 118.710000
    reduced_to: 29
  - symbol: Sn # 31
    coordinates: [  0.179167425708595,  0.567758331135912,  0.866863179667316 ]
    mass: 118.710000
    reduced_to: 29
  - symbol: Sn # 32
    coordinates: [  0.679167425708595,  0.567758331135912,  0.866863179667316 ]
    mass: 118.710000
    reduced_to: 29
  - symbol: Sn # 33
    coordinates: [  0.177567417233174,  0.445615598346604,  0.379748092216487 ]
    mass: 118.710000
    reduced_to: 33
  - symbol: Sn # 34
    coordinates: [  0.677567417233174,  0.445615598346604,  0.379748092216487 ]
    mass: 118.710000
    reduced_to: 33
  - symbol: Sn # 35
    coordinates: [  0.177567417233174,  0.945615598346604,  0.379748092216487 ]
    mass: 118.710000
    reduced_to: 33
  - symbol: Sn # 36
    coordinates: [  0.677567417233174,  0.945615598346604,  0.379748092216487 ]
    mass: 118.710000
    reduced_to: 33
  - symbol: Sn # 37
    coordinates: [  0.430090907886674,  0.068345152935325,  0.367375129639563 ]
    mass: 118.710000
    reduced_to: 37
  - symbol: Sn # 38
    coordinates: [  0.930090907886674,  0.068345152935325,  0.367375129639563 ]
    mass: 118.710000
    reduced_to: 37
  - symbol: Sn # 39
    coordinates: [  0.430090907886674,  0.568345152935325,  0.367375129639563 ]
    mass: 118.710000
    reduced_to: 37
  - symbol: Sn # 40
    coordinates: [  0.930090907886674,  0.568345152935325,  0.367375129639563 ]
    mass: 118.710000
    reduced_to: 37
  - symbol: Sn # 41
    coordinates: [  0.426788304259705,  0.445215825521467,  0.879725434752080 ]
    mass: 118.710000
    reduced_to: 41
  - symbol: Sn # 42
    coordinates: [  0.926788304259705,  0.445215825521467,  0.879725434752080 ]
    mass: 118.710000
    reduced_to: 41
  - symbol: Sn # 43
    coordinates: [  0.426788304259705,  0.945215825521467,  0.879725434752080 ]
    mass: 118.710000
    reduced_to: 41
  - symbol: Sn # 44
    coordinates: [  0.926788304259705,  0.945215825521467,  0.879725434752080 ]
    mass: 118.710000
    reduced_to: 41
  - symbol: Sn # 45
    coordinates: [  0.272097598236607,  0.260882994016948,  0.139058944960203 ]
    mass: 118.710000
    reduced_to: 45
  - symbol: Sn # 46
    coordinates: [  0.772097598236607,  0.260882994016948,  0.139058944960203 ]
    mass: 118.710000
    reduced_to: 45
  - symbol: Sn # 47
    coordinates: [  0.272097598236607,  0.760882994016948,  0.139058944960203 ]
    mass: 118.710000
    reduced_to: 45
  - symbol: Sn # 48
    coordinates: [  0.772097598236607,  0.760882994016948,  0.139058944960203 ]
    mass: 118.710000
    reduced_to: 45
  - symbol: Sn # 49
    coordinates: [  0.179171835416031,  0.322542309058563,  0.892527253148600 ]
    mass: 118.710000
    reduced_to: 49
  - symbol: Sn # 50
    coordinates: [  0.679171835416031,  0.322542309058563,  0.892527253148600 ]
    mass: 118.710000
    reduced_to: 49
  - symbol: Sn # 51
    coordinates: [  0.179171835416031,  0.822542309058563,  0.892527253148600 ]
    mass: 118.710000
    reduced_to: 49
  - symbol: Sn # 52
    coordinates: [  0.679171835416031,  0.822542309058563,  0.892527253148600 ]
    mass: 118.710000
    reduced_to: 49
  - symbol: Sn # 53
    coordinates: [  0.022075491042125,  0.130452573282125,  0.120541068477460 ]
    mass: 118.710000
    reduced_to: 53
  - symbol: Sn # 54
    coordinates: [  0.522075491042125,  0.130452573282125,  0.120541068477460 ]
    mass: 118.710000
    reduced_to: 53
  - symbol: Sn # 55
    coordinates: [  0.022075491042125,  0.630452573282125,  0.120541068477460 ]
    mass: 118.710000
    reduced_to: 53
  - symbol: Sn # 56
    coordinates: [  0.522075491042125,  0.630452573282125,  0.120541068477460 ]
    mass: 118.710000
    reduced_to: 53
  - symbol: Sn # 57
    coordinates: [  0.271802585429952,  0.130066038264500,  0.620538851941812 ]
    mass: 118.710000
    reduced_to: 57
  - symbol: Sn # 58
    coordinates: [  0.771802585429952,  0.130066038264500,  0.620538851941812 ]
    mass: 118.710000
    reduced_to: 57
  - symbol: Sn # 59
    coordinates: [  0.271802585429952,  0.630066038264500,  0.620538851941812 ]
    mass: 118.710000
    reduced_to: 57
  - symbol: Sn # 60
    coordinates: [  0.771802585429952,  0.630066038264500,  0.620538851941812 ]
    mass: 118.710000
    reduced_to: 57
  - symbol: Sn # 61
    coordinates: [  0.021891573207396,  0.260365483333577,  0.638841466999833 ]
    mass: 118.710000
    reduced_to: 61
  - symbol: Sn # 62
    coordinates: [  0.521891573207396,  0.260365483333577,  0.638841466999833 ]
    mass: 118.710000
    reduced_to: 61
  - symbol: Sn # 63
    coordinates: [  0.021891573207396,  0.760365483333577,  0.638841466999833 ]
    mass: 118.710000
    reduced_to: 61
  - symbol: Sn # 64
    coordinates: [  0.521891573207396,  0.760365483333577,  0.638841466999833 ]
    mass: 118.710000
    reduced_to: 61

displacements:
- atom:    1
  displacement:
    [   0.0100000000000000,  0.0000000000000000,  0.0000000000000000 ]
  forces:
  - [  -0.0146597921848297,  0.0016869627870619,  0.0002461075782776 ]
  - [   0.0001965593546629,  0.0016667135059834,  0.0002623638138175 ]
  - [  -0.0000792872160673,  0.0016675407532603,  0.0002633137628436 ]
  - [  -0.0002660341560841,  0.0016674392390996,  0.0002635693817865 ]
  - [  -0.0033454969525337,  0.0188195463269949, -0.0324105098843575 ]
  - [  -0.0031824372708797,  0.0189462769776583, -0.0321101918816566 ]
  - [  -0.0032781343907118,  0.0188173688948154, -0.0324765369296074 ]
  - [  -0.0033029559999704,  0.0188746433705091, -0.0325376950204372 ]
  - [  -0.0018537119030952, -0.0193006787449121,  0.0321469530463219 ]
  - [  -0.0016853287816048, -0.0194353088736534,  0.0318345576524734 ]
  - [  -0.0017855409532785, -0.0192990787327290,  0.0322106033563614 ]
  - [  -0.0018109101802111, -0.0193556528538465,  0.0322731584310532 ]
  - [  -0.0024924669414759,  0.0231190994381905, -0.0311191640794277 ]
  - [  -0.0023417510092258,  0.0230765584856272, -0.0313276052474976 ]
  - [  -0.0024278499186039,  0.0233206674456596, -0.0313301533460617 ]
  - [  -0.0022252146154642,  0.0231125988066196, -0.0313423499464989 ]
  - [  -0.0021883808076382, -0.0221432149410248,  0.0314921364188194 ]
  - [  -0.0020381845533848, -0.0220972523093224,  0.0316986292600632 ]
  - [  -0.0021271184086800, -0.0223407112061977,  0.0317024439573288 ]
  - [  -0.0019233189523220, -0.0221344213932753,  0.0317126214504242 ]
  - [  -0.0069471653550863, -0.0009034569957294,  0.0007912811124697 ]
  - [  -0.0069508943706751, -0.0009033664246090,  0.0007874106522650 ]
  - [  -0.0068818181753159, -0.0009036599658430,  0.0007904021767899 ]
  - [  -0.0068822838366032, -0.0009033973328769,  0.0007898035692051 ]
  - [   0.0149252144619823,  0.0072254054248333, -0.0069878175854683 ]
  - [   0.0151146370917559,  0.0071032531559467, -0.0070521607995033 ]
  - [   0.0151116941124201,  0.0071771498769522, -0.0069743692874908 ]
  - [   0.0150529481470585,  0.0071554472669959, -0.0070568807423115 ]
  - [   0.0210032090544701, -0.0075597930699587,  0.0107051618397236 ]
  - [   0.0203134715557098, -0.0100839277729392,  0.0099384076893330 ]
  - [   0.0178312081843615, -0.0089557338505983,  0.0101351886987686 ]
  - [   0.0177865512669086, -0.0090459417551756,  0.0100607350468636 ]
  - [  -0.0266989171504974, -0.0010682326974347,  0.0003093164414167 ]
  - [  -0.0267069935798645, -0.0009953384287655,  0.0002649703528732 ]
  - [  -0.0267014242708683, -0.0009759049862623,  0.0002494620275684 ]
  - [  -0.0267065130174160, -0.0010433881543577,  0.0002984734310303 ]
  - [   0.0133475251495838, -0.0087085282430053,  0.0056207589805126 ]
  - [   0.0135387722402811, -0.0085882842540741,  0.0056855082511902 ]
  - [   0.0135362036526203, -0.0086603797972202,  0.0056101456284523 ]
  - [   0.0134751144796610, -0.0086393821984529,  0.0056905895471573 ]
  - [  -0.0248311795294285,  0.0006498355651274,  0.0004349558730610 ]
  - [  -0.0241817645728588,  0.0005533873918466,  0.0002908279420808 ]
  - [  -0.0248356908559799,  0.0007345037884079,  0.0002309351111762 ]
  - [  -0.0241797864437103,  0.0008293978753500,  0.0003772472846322 ]
  - [   0.0012416671961546, -0.0054829567670822, -0.0134419817477465 ]
  - [   0.0006398633122444, -0.0059088282287121, -0.0114377103745937 ]
  - [   0.0001885052770376, -0.0058322791010141, -0.0116862691938877 ]
  - [   0.0001991856843233, -0.0058249123394489, -0.0115744397044182 ]
  - [   0.0215827543288469,  0.0098225092515349, -0.0097245387732983 ]
  - [   0.0208993274718523,  0.0123479133471847, -0.0089633166790009 ]
  - [   0.0184136219322681,  0.0112217459827662, -0.0091531910002232 ]
  - [   0.0183712951838970,  0.0113118961453438, -0.0090790726244450 ]
  - [   0.0003092903643847,  0.0041862428188324,  0.0105986474081874 ]
  - [   0.0013377945870161,  0.0036070104688406,  0.0119223566725850 ]
  - [   0.0005628112703562,  0.0042565949261189,  0.0105292312800884 ]
  - [   0.0005759466439486,  0.0042973272502422,  0.0105296606197953 ]
  - [   0.0027134008705616,  0.0042548328638077,  0.0124589689075947 ]
  - [   0.0021060574799776,  0.0046782940626144,  0.0104492241516709 ]
  - [   0.0016555618494749,  0.0046016089618206,  0.0106948278844357 ]
  - [   0.0016664229333401,  0.0045921728014946,  0.0105828791856766 ]
  - [   0.0000695530325174, -0.0046681482344866, -0.0109988003969193 ]
  - [   0.0010899566113949, -0.0041002109646797, -0.0122912693768740 ]
  - [   0.0003250986337662, -0.0047378651797771, -0.0109283057972789 ]
  - [   0.0003371592611074, -0.0047815963625908, -0.0109295593574643 ]
- atom:    1
  displacement:
    [  -0.0100000000000000,  0.0000000000000000,  0.0000000000000000 ]
  forces:
  - [   0.0143618788570166,  0.0016480761114508,  0.0002784328535199 ]
  - [  -0.0005554445087910,  0.0016682245768607,  0.0002639554440975 ]
  - [  -0.0002847779542208,  0.0016671980265528,  0.0002632746472955 ]
  - [  -0.0000993143767118,  0.0016667887102813,  0.0002634889387991 ]
  - [  -0.0032678823918104,  0.0188191067427397, -0.0326664820313454 ]
  - [  -0.0034369975328445,  0.0186909697949886, -0.0329645164310932 ]
  - [  -0.0033375546336174,  0.0188238825649023, -0.0325999334454536 ]
  - [  -0.0033136531710625,  0.0187701527029276, -0.0325386449694633 ]
  - [  -0.0017760153859854, -0.0193019863218069,  0.0324006229639053 ]
  - [  -0.0019508767873049, -0.0191641114652157,  0.0327107831835747 ]
  - [  -0.0018456969410181, -0.0193050466477871,  0.0323351025581360 ]
  - [  -0.0018214713782072, -0.0192501638084650,  0.0322742685675621 ]
  - [  -0.0021400675177574,  0.0231388602405787, -0.0315049700438976 ]
  - [  -0.0022883415222168,  0.0231851451098919, -0.0312953256070614 ]
  - [  -0.0022072736173868,  0.0229385998100042, -0.0312922224402428 ]
  - [  -0.0024071913212538,  0.0231489706784487, -0.0312811583280563 ]
  - [  -0.0018364880234003, -0.0221570543944836,  0.0318744629621506 ]
  - [  -0.0019841194152832, -0.0222069025039673,  0.0316690914332867 ]
  - [  -0.0019016526639462, -0.0219611451029778,  0.0316632948815823 ]
  - [  -0.0021015331149101, -0.0221689231693745,  0.0316530503332615 ]
  - [  -0.0068138800561428, -0.0009013501694426,  0.0007891035638750 ]
  - [  -0.0068096555769444, -0.0009021041914821,  0.0007921922951937 ]
  - [  -0.0068796556442976, -0.0009030986693688,  0.0007900780765340 ]
  - [  -0.0068806223571301, -0.0009032888337970,  0.0007897897157818 ]
  - [   0.0151798920705914,  0.0070707444101572, -0.0071076042950153 ]
  - [   0.0149888386949897,  0.0071919132024050, -0.0070445872843266 ]
  - [   0.0149927167221904,  0.0071175070479512, -0.0071201622486115 ]
  - [   0.0150519609451294,  0.0071398047730327, -0.0070381388068199 ]
  - [   0.0147157143801451, -0.0104369539767504,  0.0094916634261608 ]
  - [   0.0155558325350285, -0.0078869480639696,  0.0102655403316021 ]
  - [   0.0179784484207630, -0.0089696217328310,  0.0100704506039619 ]
  - [   0.0180133711546659, -0.0088788531720638,  0.0101435482501984 ]
  - [  -0.0266597047448158, -0.0009709984296933,  0.0002521036658436 ]
  - [  -0.0266480632126331, -0.0010415145661682,  0.0002979247365147 ]
  - [  -0.0266579650342464, -0.0010655166115612,  0.0003156354650855 ]
  - [  -0.0266497284173965, -0.0009976617293432,  0.0002639919694047 ]
  - [   0.0136059597134590, -0.0085540758445859,  0.0057393833994865 ]
  - [   0.0134115312248468, -0.0086752846837044,  0.0056763179600239 ]
  - [   0.0134173091500998, -0.0086016003042459,  0.0057517923414707 ]
  - [   0.0134758856147528, -0.0086248163133860,  0.0056715756654739 ]
  - [  -0.0241538137197495,  0.0007221658597700,  0.0002322677755728 ]
  - [  -0.0248169824481010,  0.0008238236187026,  0.0003767600283027 ]
  - [  -0.0241511613130569,  0.0006644751410931,  0.0004371048999019 ]
  - [  -0.0248143039643764,  0.0005644807824865,  0.0002921452978626 ]
  - [  -0.0008368678390980, -0.0062129478901625, -0.0098027642816305 ]
  - [  -0.0002293419092894, -0.0057811848819256, -0.0118496567010880 ]
  - [   0.0002234335988760, -0.0058532878756523, -0.0115980450063944 ]
  - [   0.0002142079174519, -0.0058623310178518, -0.0117110554128885 ]
  - [   0.0153035428375006,  0.0126995611935854, -0.0085058175027370 ]
  - [   0.0161364413797855,  0.0101533737033606, -0.0092785023152828 ]
  - [   0.0185625497251749,  0.0112316077575088, -0.0090886056423187 ]
  - [   0.0185979921370745,  0.0111405402421951, -0.0091630071401596 ]
  - [   0.0008287113159895,  0.0043334681540728,  0.0104794567450881 ]
  - [  -0.0002178102731705,  0.0049032997339964,  0.0091658011078835 ]
  - [   0.0005712378770113,  0.0042611733078957,  0.0105512524023652 ]
  - [   0.0005555413663387,  0.0042169839143753,  0.0105472039431334 ]
  - [   0.0006278716027737,  0.0049782767891884,  0.0088035576045513 ]
  - [   0.0012393258512020,  0.0045454055070877,  0.0108579648658633 ]
  - [   0.0016905367374420,  0.0046226158738136,  0.0106062470003963 ]
  - [   0.0016819573938847,  0.0046296976506710,  0.0107209719717503 ]
  - [   0.0005907621234655, -0.0048179570585489, -0.0108798928558826 ]
  - [  -0.0004475861787796, -0.0053772963583469, -0.0095942309126258 ]
  - [   0.0003332104533911, -0.0047439169138670, -0.0109511651098728 ]
  - [   0.0003168433904648, -0.0046989992260933, -0.0109451636672020 ]
- atom:    1
  displacement:
    [  -0.0000010200119861,  0.0099999999479788,  0.0000000000000000 ]
  forces:
  - [  -0.0001821815967560, -0.0108266938477755,  0.0030759493820369 ]
  - [  -0.0001823958009481,  0.0015808800235391,  0.0002174228429794 ]
  - [  -0.0001796353608370, -0.0004660221748054,  0.0002731299027801 ]
  - [  -0.0001824535429478,  0.0017550028860569,  0.0002784563985188 ]
  - [  -0.0032888874411583,  0.0188229419291019, -0.0325346477329731 ]
  - [  -0.0031089577823877,  0.0189201012253761, -0.0317838378250599 ]
  - [  -0.0033133737742901,  0.0188266579061747, -0.0325773209333420 ]
  - [  -0.0033104196190834,  0.0189370140433311, -0.0324626788496971 ]
  - [  -0.0018342882394791, -0.0192974153906107,  0.0322760567069054 ]
  - [  -0.0020152311772108, -0.0191954504698515,  0.0330280289053917 ]
  - [  -0.0018106866627932, -0.0192959513515234,  0.0322340466082096 ]
  - [  -0.0018161740154028, -0.0191861242055893,  0.0323528870940208 ]
  - [  -0.0023224223405123,  0.0231449939310551, -0.0313763059675694 ]
  - [  -0.0024430416524410,  0.0230597630143166, -0.0313255414366722 ]
  - [  -0.0022879596799612,  0.0230427440255880, -0.0311837904155254 ]
  - [  -0.0023307371884584,  0.0231986697763205, -0.0313159935176373 ]
  - [  -0.0020056050270796, -0.0221384987235069,  0.0316154100000858 ]
  - [  -0.0018883813172579, -0.0222226716578007,  0.0316689312458038 ]
  - [  -0.0020441599190235, -0.0222347266972065,  0.0318124368786812 ]
  - [  -0.0020014178007841, -0.0220830347388983,  0.0316779538989067 ]
  - [  -0.0068797543644905, -0.0008653777767904,  0.0006844029994681 ]
  - [  -0.0068814195692539, -0.0008694623829797,  0.0012393649667501 ]
  - [  -0.0068805888295174, -0.0008972861105576,  0.0008172487141564 ]
  - [  -0.0068809613585472, -0.0008972501382232,  0.0008874370250851 ]
  - [   0.0150842638686299,  0.0070566385984421, -0.0068683028221130 ]
  - [   0.0150561835616827,  0.0071507925167680, -0.0070815756917000 ]
  - [   0.0150109194219112,  0.0071387887001038, -0.0070366486907005 ]
  - [   0.0150502528995275,  0.0071524009108543, -0.0070571489632130 ]
  - [   0.0198741983622313, -0.0083989156410098,  0.0103645697236061 ]
  - [   0.0164728444069624, -0.0084606809541583,  0.0102187544107437 ]
  - [   0.0178641527891159, -0.0089290076866746,  0.0100778304040432 ]
  - [   0.0178779251873493, -0.0090502668172121,  0.0101205632090569 ]
  - [  -0.0266838930547237, -0.0010441391495988,  0.0002247683005407 ]
  - [  -0.0267402306199074, -0.0009922893950716,  0.0001676030224189 ]
  - [  -0.0266736969351768, -0.0010454731527716,  0.0002246082876809 ]
  - [  -0.0266177728772163, -0.0009962805779651,  0.0001671663485467 ]
  - [   0.0134433563798666, -0.0087234675884247,  0.0058551430702209 ]
  - [   0.0134722245857120, -0.0086293928325176,  0.0056475512683392 ]
  - [   0.0135160936042666, -0.0086394734680653,  0.0056951418519020 ]
  - [   0.0134777370840311, -0.0086273308843374,  0.0056714229285717 ]
  - [  -0.0242728404700756,  0.0057664099149406,  0.0001454416778870 ]
  - [  -0.0245656110346317,  0.0007601111428812,  0.0003150262637064 ]
  - [  -0.0247191339731216,  0.0055859540589154,  0.0001519345678389 ]
  - [  -0.0244271904230118,  0.0007601472316310,  0.0003140137996525 ]
  - [   0.0003925208002329, -0.0059864725917578, -0.0117113050073385 ]
  - [   0.0004102252423763, -0.0057999212294817, -0.0115231228992343 ]
  - [   0.0001859292387962, -0.0057589784264565, -0.0116698937490582 ]
  - [   0.0002388674765825, -0.0058086216449738, -0.0116585604846478 ]
  - [   0.0164938531816006,  0.0117967184633017, -0.0088573992252350 ]
  - [   0.0199355855584145,  0.0117312343791127, -0.0090075992047787 ]
  - [   0.0185289457440376,  0.0112654622644186, -0.0091467127203941 ]
  - [   0.0185089595615864,  0.0111415758728981, -0.0091023594141006 ]
  - [   0.0005594082176685,  0.0042597316205502,  0.0105537995696068 ]
  - [  -0.0009057167917490,  0.0054268613457680,  0.0079928878694773 ]
  - [   0.0005275253206491,  0.0042567998170853,  0.0105648590251803 ]
  - [   0.0005547814071178,  0.0041990540921688,  0.0104377632960677 ]
  - [   0.0014900360256433,  0.0044712163507938,  0.0105827562510967 ]
  - [   0.0014685299247503,  0.0046565849334002,  0.0107747502624989 ]
  - [   0.0016918238252401,  0.0046958047896624,  0.0106219137087464 ]
  - [   0.0016425903886557,  0.0046459063887596,  0.0106347408145666 ]
  - [   0.0003366116434336, -0.0047395378351212, -0.0109259802848101 ]
  - [   0.0018060505390167, -0.0035655610263348, -0.0135097093880177 ]
  - [   0.0003669187426567, -0.0047412589192390, -0.0109122507274151 ]
  - [   0.0003379099071026, -0.0047939643263817, -0.0110354470089078 ]
- atom:    1
  displacement:
    [   0.0000010200119861, -0.0099999999479788,  0.0000000000000000 ]
  forces:
  - [  -0.0002243239432573,  0.0141637185588479, -0.0025500245392323 ]
  - [  -0.0001810565590858,  0.0017539469990879,  0.0003089252859354 ]
  - [  -0.0001797787845135,  0.0038007872644812,  0.0002533597871661 ]
  - [  -0.0001830458641052,  0.0015790474135429,  0.0002485154545866 ]
  - [  -0.0033259727060795,  0.0188159123063087, -0.0325411856174469 ]
  - [  -0.0035019237548113,  0.0187236964702606, -0.0332773774862289 ]
  - [  -0.0033027343451977,  0.0188145972788334, -0.0324992164969444 ]
  - [  -0.0033081397414207,  0.0187029149383307, -0.0326160602271557 ]
  - [  -0.0017969459295273, -0.0193053707480431,  0.0322700664401054 ]
  - [  -0.0016125794500113, -0.0194098819047213,  0.0315038412809372 ]
  - [  -0.0018205977976322, -0.0193081367760897,  0.0323118120431900 ]
  - [  -0.0018183607608080, -0.0194145068526268,  0.0321969129145145 ]
  - [  -0.0023077242076397,  0.0231142099946737, -0.0312418304383755 ]
  - [  -0.0021927878260612,  0.0232006292790174, -0.0312956273555756 ]
  - [  -0.0023485720157623,  0.0232120826840401, -0.0314441509544849 ]
  - [  -0.0023042559623718,  0.0230616517364979, -0.0313068702816963 ]
  - [  -0.0020168330520391, -0.0221632346510887,  0.0317450053989887 ]
  - [  -0.0021399855613708, -0.0220799911767244,  0.0316967964172363 ]