phonopy:
  version: "2.37.1"
  frequency_unit_conversion_factor: 15.633302
  symmetry_tolerance: 1.00000e-05

space_group:
  type: "P1"
  number: 1
  Hall_symbol: "P 1"

primitive_matrix:
- [ -0.000000000000000, -1.000000000000000,  1.000000000000000 ]
- [  1.000000000000000,  0.000000000000000, -0.000000000000000 ]
- [  0.000000000000000,  0.000000000000000,  1.000000000000000 ]

supercell_matrix:
- [   3,   0,   0 ]
- [   0,   3,   0 ]
- [   0,   0,   1 ]

primitive_cell:
  lattice:
  - [     0.000017462025502,     4.506694540078962,     0.000000000000000 ] # a
  - [    -4.644389451196631,     0.000000000000000,     0.000000000000000 ] # b
  - [     2.320993049122415,    -2.251690057854897,    14.399097357069261 ] # c
  points:
  - symbol: Li # 1
    coordinates: [  0.610898222146312,  0.259536999418094,  0.097792560807581 ]
    mass: 6.940000
  - symbol: Li # 2
    coordinates: [  0.865888293780399,  0.015350617888639,  0.607935394347657 ]
    mass: 6.940000
  - symbol: Li # 3
    coordinates: [  0.529714920229097,  0.678023824256943,  0.934647654440872 ]
    mass: 6.940000
  - symbol: Sn # 4
    coordinates: [  0.687802255204288,  0.835956373913458,  0.250804642897920 ]
    mass: 118.710000
  - symbol: Sn # 5
    coordinates: [  0.193574767344621,  0.341830976295892,  0.262128611651046 ]
    mass: 118.710000
  - symbol: Sn # 6
    coordinates: [  0.034876564696200,  0.183316298068054,  0.945520879913571 ]
    mass: 118.710000
  - symbol: Sn # 7
    coordinates: [  0.281631750924065,  0.931229036571022,  0.440011262577592 ]
    mass: 118.710000
  - symbol: Sn # 8
    coordinates: [  0.949099804932987,  0.598274242836808,  0.774294623269227 ]
    mass: 118.710000
  - symbol: Sn # 9
    coordinates: [  0.449945931975810,  0.098540172556802,  0.774589984176148 ]
    mass: 118.710000
  - symbol: Sn # 10
    coordinates: [  0.785679584459489,  0.435102098771949,  0.447364451574585 ]
    mass: 118.710000
  - symbol: Sn # 11
    coordinates: [  0.365067717872783,  0.514805580703015,  0.606916541264720 ]
    mass: 118.710000
  - symbol: Sn # 12
    coordinates: [  0.106728452751237,  0.754958831118876,  0.088525994503542 ]
    mass: 118.710000
  reciprocal_lattice: # without 2pi
  - [    -0.000000000000000,     0.221892118737313,     0.034698860997135 ] # a*
  - [    -0.215313554237436,     0.000000834272379,     0.034706560341743 ] # b*
  - [    -0.000000000000000,     0.000000000000000,     0.069448797740717 ] # c*

unit_cell:
  lattice:
  - [     4.644389451196631,     0.000000000000000,     0.000000000000000 ] # a
  - [     0.000017462025502,     4.506694540078962,     0.000000000000000 ] # b
  - [    -2.323396402074216,    -2.251690057854897,    14.399097357069261 ] # c
  points:
  - symbol: Li # 1
    coordinates: [  0.838255561389487,  0.610898222146312,  0.097792560807581 ]
    mass: 6.940000
    reduced_to: 1
  - symbol: Li # 2
    coordinates: [  0.592584776459017,  0.865888293780399,  0.607935394347657 ]
    mass: 6.940000
    reduced_to: 2
  - symbol: Li # 3
    coordinates: [  0.256623830183929,  0.529714920229097,  0.934647654440872 ]
    mass: 6.940000
    reduced_to: 3
  - symbol: Sn # 4
    coordinates: [  0.414848268984462,  0.687802255204288,  0.250804642897920 ]
    mass: 118.710000
    reduced_to: 4
  - symbol: Sn # 5
    coordinates: [  0.920297635355154,  0.193574767344621,  0.262128611651046 ]
    mass: 118.710000
    reduced_to: 5
  - symbol: Sn # 6
    coordinates: [  0.762204581845517,  0.034876564696200,  0.945520879913571 ]
    mass: 118.710000
    reduced_to: 6
  - symbol: Sn # 7
    coordinates: [  0.508782226006570,  0.281631750924065,  0.440011262577592 ]
    mass: 118.710000
    reduced_to: 7
  - symbol: Sn # 8
    coordinates: [  0.176020380432419,  0.949099804932987,  0.774294623269227 ]
    mass: 118.710000
    reduced_to: 8
  - symbol: Sn # 9
    coordinates: [  0.676049811619346,  0.449945931975810,  0.774589984176148 ]
    mass: 118.710000
    reduced_to: 9
  - symbol: Sn # 10
    coordinates: [  0.012262352802636,  0.785679584459489,  0.447364451574585 ]
    mass: 118.710000
    reduced_to: 10
  - symbol: Sn # 11
    coordinates: [  0.092110960561705,  0.365067717872783,  0.606916541264720 ]
    mass: 118.710000
    reduced_to: 11
  - symbol: Sn # 12
    coordinates: [  0.333567163384665,  0.106728452751237,  0.088525994503542 ]
    mass: 118.710000
    reduced_to: 12

supercell:
  lattice:
  - [    13.933168353589895,     0.000000000000000,     0.000000000000000 ] # a
  - [     0.000052386076505,    13.520083620236885,     0.000000000000000 ] # b
  - [    -2.323396402074216,    -2.251690057854897,    14.399097357069261 ] # c
  points:
  - symbol: Li # 1
    coordinates: [  0.279418520463162,  0.203632740715437,  0.097792560807581 ]
    mass: 6.940000
    reduced_to: 1
  - symbol: Li # 2
    coordinates: [  0.612751853796496,  0.203632740715437,  0.097792560807581 ]
    mass: 6.940000
    reduced_to: 1
  - symbol: Li # 3
    coordinates: [  0.946085187129829,  0.203632740715437,  0.097792560807581 ]
    mass: 6.940000
    reduced_to: 1
  - symbol: Li # 4
    coordinates: [  0.279418520463162,  0.536966074048771,  0.097792560807581 ]
    mass: 6.940000
    reduced_to: 1
  - symbol: Li # 5
    coordinates: [  0.612751853796496,  0.536966074048771,  0.097792560807581 ]
    mass: 6.940000
    reduced_to: 1
  - symbol: Li # 6
    coordinates: [  0.946085187129829,  0.536966074048771,  0.097792560807581 ]
    mass: 6.940000
    reduced_to: 1
  - symbol: Li # 7
    coordinates: [  0.279418520463162,  0.870299407382104,  0.097792560807581 ]
    mass: 6.940000
    reduced_to: 1
  - symbol: Li # 8
    coordinates: [  0.612751853796496,  0.870299407382104,  0.097792560807581 ]
    mass: 6.940000
    reduced_to: 1
  - symbol: Li # 9
    coordinates: [  0.946085187129829,  0.870299407382104,  0.097792560807581 ]
    mass: 6.940000
    reduced_to: 1
  - symbol: Li # 10
    coordinates: [  0.197528258819672,  0.288629431260133,  0.607935394347657 ]
    mass: 6.940000
    reduced_to: 10
  - symbol: Li # 11
    coordinates: [  0.530861592153006,  0.288629431260133,  0.607935394347657 ]
    mass: 6.940000
    reduced_to: 10
  - symbol: Li # 12
    coordinates: [  0.864194925486339,  0.288629431260133,  0.607935394347657 ]
    mass: 6.940000
    reduced_to: 10
  - symbol: Li # 13
    coordinates: [  0.197528258819672,  0.621962764593466,  0.607935394347657 ]
    mass: 6.940000
    reduced_to: 10
  - symbol: Li # 14
    coordinates: [  0.530861592153006,  0.621962764593466,  0.607935394347657 ]
    mass: 6.940000
    reduced_to: 10
  - symbol: Li # 15
    coordinates: [  0.864194925486339,  0.621962764593466,  0.607935394347657 ]
    mass: 6.940000
    reduced_to: 10
  - symbol: Li # 16
    coordinates: [  0.197528258819672,  0.955296097926800,  0.607935394347657 ]
    mass: 6.940000
    reduced_to: 10
  - symbol: Li # 17
    coordinates: [  0.530861592153006,  0.955296097926800,  0.607935394347657 ]
    mass: 6.940000
    reduced_to: 10
  - symbol: Li # 18
    coordinates: [  0.864194925486339,  0.955296097926800,  0.607935394347657 ]
    mass: 6.940000
    reduced_to: 10
  - symbol: Li # 19
    coordinates: [  0.085541276727976,  0.176571640076366,  0.934647654440872 ]
    mass: 6.940000
    reduced_to: 19
  - symbol: Li # 20
    coordinates: [  0.418874610061310,  0.176571640076366,  0.934647654440872 ]
    mass: 6.940000
    reduced_to: 19
  - symbol: Li # 21
    coordinates: [  0.752207943394643,  0.176571640076366,  0.934647654440872 ]
    mass: 6.940000
    reduced_to: 19
  - symbol: Li # 22
    coordinates: [  0.085541276727976,  0.509904973409699,  0.934647654440872 ]
    mass: 6.940000
    reduced_to: 19
  - symbol: Li # 23
    coordinates: [  0.418874610061310,  0.509904973409699,  0.934647654440872 ]
    mass: 6.940000
    reduced_to: 19
  - symbol: Li # 24
    coordinates: [  0.752207943394643,  0.509904973409699,  0.934647654440872 ]
    mass: 6.940000
    reduced_to: 19
  - symbol: Li # 25
    coordinates: [  0.085541276727976,  0.843238306743032,  0.934647654440872 ]
    mass: 6.940000
    reduced_to: 19
  - symbol: Li # 26
    coordinates: [  0.418874610061310,  0.843238306743032,  0.934647654440872 ]
    mass: 6.940000
    reduced_to: 19
  - symbol: Li # 27
    coordinates: [  0.752207943394643,  0.843238306743032,  0.934647654440872 ]
    mass: 6.940000
    reduced_to: 19
  - symbol: Sn # 28
    coordinates: [  0.138282756328154,  0.229267418401429,  0.250804642897920 ]
    mass: 118.710000
    reduced_to: 28
  - symbol: Sn # 29
    coordinates: [  0.471616089661487,  0.229267418401429,  0.250804642897920 ]
    mass: 118.710000
    reduced_to: 28
  - symbol: Sn # 30
    coordinates: [  0.804949422994820,  0.229267418401429,  0.250804642897920 ]
    mass: 118.710000
    reduced_to: 28
  - symbol: Sn # 31
    coordinates: [  0.138282756328154,  0.562600751734763,  0.250804642897920 ]
    mass: 118.710000
    reduced_to: 28
  - symbol: Sn # 32
    coordinates: [  0.471616089661487,  0.562600751734763,  0.250804642897920 ]
    mass: 118.710000
    reduced_to: 28
  - symbol: Sn # 33
    coordinates: [  0.804949422994820,  0.562600751734763,  0.250804642897920 ]
    mass: 118.710000
    reduced_to: 28
  - symbol: Sn # 34
    coordinates: [  0.138282756328154,  0.895934085068096,  0.250804642897920 ]
    mass: 118.710000
    reduced_to: 28
  - symbol: Sn # 35
    coordinates: [  0.471616089661487,  0.895934085068096,  0.250804642897920 ]
    mass: 118.710000
    reduced_to: 28
  - symbol: Sn # 36
    coordinates: [  0.804949422994820,  0.895934085068096,  0.250804642897920 ]
    mass: 118.710000
    reduced_to: 28
  - symbol: Sn # 37
    coordinates: [  0.306765878451718,  0.064524922448207,  0.262128611651046 ]
    mass: 118.710000
    reduced_to: 37
  - symbol: Sn # 38
    coordinates: [  0.640099211785051,  0.064524922448207,  0.262128611651046 ]
    mass: 118.710000
    reduced_to: 37
  - symbol: Sn # 39
    coordinates: [  0.973432545118385,  0.064524922448207,  0.262128611651046 ]
    mass: 118.710000
    reduced_to: 37
  - symbol: Sn # 40
    coordinates: [  0.306765878451718,  0.397858255781540,  0.262128611651046 ]
    mass: 118.710000
    reduced_to: 37
  - symbol: Sn # 41
    coordinates: [  0.640099211785051,  0.397858255781540,  0.262128611651046 ]
    mass: 118.710000
    reduced_to: 37
  - symbol: Sn # 42
    coordinates: [  0.973432545118385,  0.397858255781540,  0.262128611651046 ]
    mass: 118.710000
    reduced_to: 37
  - symbol: Sn # 43
    coordinates: [  0.306765878451718,  0.731191589114874,  0.262128611651046 ]
    mass: 118.710000
    reduced_to: 37
  - symbol: Sn # 44
    coordinates: [  0.640099211785051,  0.731191589114874,  0.262128611651046 ]
    mass: 118.710000
    reduced_to: 37
  - symbol: Sn # 45
    coordinates: [  0.973432545118385,  0.731191589114874,  0.262128611651046 ]
    mass: 118.710000
    reduced_to: 37
  - symbol: Sn # 46
    coordinates: [  0.254068193948505,  0.011625521565400,  0.945520879913571 ]
    mass: 118.710000
    reduced_to: 46
  - symbol: Sn # 47
    coordinates: [  0.587401527281839,  0.011625521565400,  0.945520879913571 ]
    mass: 118.710000
    reduced_to: 46
  - symbol: Sn # 48
    coordinates: [  0.920734860615172,  0.011625521565400,  0.945520879913571 ]
    mass: 118.710000
    reduced_to: 46
  - symbol: Sn # 49
    coordinates: [  0.254068193948505,  0.344958854898733,  0.945520879913571 ]
    mass: 118.710000
    reduced_to: 46
  - symbol: Sn # 50
    coordinates: [  0.587401527281839,  0.344958854898733,  0.945520879913571 ]
    mass: 118.710000
    reduced_to: 46
  - symbol: Sn # 51
    coordinates: [  0.920734860615172,  0.344958854898733,  0.945520879913571 ]
    mass: 118.710000
    reduced_to: 46
  - symbol: Sn # 52
    coordinates: [  0.254068193948505,  0.678292188232067,  0.945520879913571 ]
    mass: 118.710000
    reduced_to: 46
  - symbol: Sn # 53
    coordinates: [  0.587401527281839,  0.678292188232067,  0.945520879913571 ]
    mass: 118.710000
    reduced_to: 46
  - symbol: Sn # 54
    coordinates: [  0.920734860615172,  0.678292188232067,  0.945520879913571 ]
    mass: 118.710000
    reduced_to: 46
  - symbol: Sn # 55
    coordinates: [  0.169594075335523,  0.093877250308022,  0.440011262577592 ]
    mass: 118.710000
    reduced_to: 55
  - symbol: Sn # 56
    coordinates: [  0.502927408668857,  0.093877250308022,  0.440011262577592 ]
    mass: 118.710000
    reduced_to: 55
  - symbol: Sn # 57
    coordinates: [  0.836260742002190,  0.093877250308022,  0.440011262577592 ]
    mass: 118.710000
    reduced_to: 55
  - symbol: Sn # 58
    coordinates: [  0.169594075335523,  0.427210583641355,  0.440011262577592 ]
    mass: 118.710000
    reduced_to: 55
  - symbol: Sn # 59
    coordinates: [  0.502927408668857,  0.427210583641355,  0.440011262577592 ]
    mass: 118.710000
    reduced_to: 55
  - symbol: Sn # 60
    coordinates: [  0.836260742002190,  0.427210583641355,  0.440011262577592 ]
    mass: 118.710000
    reduced_to: 55
  - symbol: Sn # 61
    coordinates: [  0.169594075335523,  0.760543916974688,  0.440011262577592 ]
    mass: 118.710000
    reduced_to: 55
  - symbol: Sn # 62
    coordinates: [  0.502927408668857,  0.760543916974688,  0.440011262577592 ]
    mass: 118.710000
    reduced_to: 55
  - symbol: Sn # 63
    coordinates: [  0.836260742002190,  0.760543916974688,  0.440011262577592 ]
    mass: 118.710000
    reduced_to: 55
  - symbol: Sn # 64
    coordinates: [  0.058673460144140,  0.316366601644329,  0.774294623269227 ]
    mass: 118.710000
    reduced_to: 64
  - symbol: Sn # 65
    coordinates: [  0.392006793477473,  0.316366601644329,  0.774294623269227 ]
    mass: 118.710000
    reduced_to: 64
  - symbol: Sn # 66
    coordinates: [  0.725340126810806,  0.316366601644329,  0.774294623269227 ]
    mass: 118.710000
    reduced_to: 64
  - symbol: Sn # 67
    coordinates: [  0.058673460144140,  0.649699934977662,  0.774294623269227 ]
    mass: 118.710000
    reduced_to: 64
  - symbol: Sn # 68
    coordinates: [  0.392006793477473,  0.649699934977662,  0.774294623269227 ]
    mass: 118.710000
    reduced_to: 64
  - symbol: Sn # 69
    coordinates: [  0.725340126810806,  0.649699934977662,  0.774294623269227 ]
    mass: 118.710000
    reduced_to: 64
  - symbol: Sn # 70
    coordinates: [  0.058673460144140,  0.983033268310996,  0.774294623269227 ]
    mass: 118.710000
    reduced_to: 64
  - symbol: Sn # 71
    coordinates: [  0.392006793477473,  0.983033268310996,  0.774294623269227 ]
    mass: 118.710000
    reduced_to: 64
  - symbol: Sn # 72
    coordinates: [  0.725340126810806,  0.983033268310996,  0.774294623269227 ]
    mass: 118.710000
    reduced_to: 64
  - symbol: Sn # 73
    coordinates: [  0.225349937206448,  0.149981977325270,  0.774589984176148 ]
    mass: 118.710000
    reduced_to: 73
  - symbol: Sn # 74
    coordinates: [  0.558683270539782,  0.149981977325270,  0.774589984176148 ]
    mass: 118.710000
    reduced_to: 73
  - symbol: Sn # 75
    coordinates: [  0.892016603873115,  0.149981977325270,  0.774589984176148 ]
    mass: 118.710000
    reduced_to: 73
  - symbol: Sn # 76
    coordinates: [  0.225349937206448,  0.483315310658603,  0.774589984176148 ]
    mass: 118.710000
    reduced_to: 73
  - symbol: Sn # 77
    coordinates: [  0.558683270539782,  0.483315310658603,  0.774589984176148 ]
    mass: 118.710000
    reduced_to: 73
  - symbol: Sn # 78
    coordinates: [  0.892016603873115,  0.483315310658603,  0.774589984176148 ]
    mass: 118.710000
    reduced_to: 73
  - symbol: Sn # 79
    coordinates: [  0.225349937206448,  0.816648643991937,  0.774589984176148 ]
    mass: 118.710000
    reduced_to: 73
  - symbol: Sn # 80
    coordinates: [  0.558683270539782,  0.816648643991937,  0.774589984176148 ]
    mass: 118.710000
    reduced_to: 73
  - symbol: Sn # 81
    coordinates: [  0.892016603873115,  0.816648643991937,  0.774589984176148 ]
    mass: 118.710000
    reduced_to: 73
  - symbol: Sn # 82
    coordinates: [  0.004087450934212,  0.261893194819830,  0.447364451574585 ]
    mass: 118.710000
    reduced_to: 82
  - symbol: Sn # 83
    coordinates: [  0.337420784267545,  0.261893194819830,  0.447364451574585 ]
    mass: 118.710000
    reduced_to: 82
  - symbol: Sn # 84
    coordinates: [  0.670754117600879,  0.261893194819830,  0.447364451574585 ]
    mass: 118.710000
    reduced_to: 82
  - symbol: Sn # 85
    coordinates: [  0.004087450934212,  0.595226528153163,  0.447364451574585 ]
    mass: 118.710000
    reduced_to: 82
  - symbol: Sn # 86
    coordinates: [  0.337420784267545,  0.595226528153163,  0.447364451574585 ]
    mass: 118.710000
    reduced_to: 82
  - symbol: Sn # 87
    coordinates: [  0.670754117600879,  0.595226528153163,  0.447364451574585 ]
    mass: 118.710000
    reduced_to: 82
  - symbol: Sn # 88
    coordinates: [  0.004087450934212,  0.928559861486496,  0.447364451574585 ]
    mass: 118.710000
    reduced_to: 82
  - symbol: Sn # 89
    coordinates: [  0.337420784267545,  0.928559861486496,  0.447364451574585 ]
    mass: 118.710000
    reduced_to: 82
  - symbol: Sn # 90
    coordinates: [  0.670754117600879,  0.928559861486496,  0.447364451574585 ]
    mass: 118.710000
    reduced_to: 82
  - symbol: Sn # 91
    coordinates: [  0.030703653520568,  0.121689239290928,  0.606916541264720 ]
    mass: 118.710000
    reduced_to: 91
  - symbol: Sn # 92
    coordinates: [  0.364036986853902,  0.121689239290928,  0.606916541264720 ]
    mass: 118.710000
    reduced_to: 91
  - symbol: Sn # 93
    coordinates: [  0.697370320187235,  0.121689239290928,  0.606916541264720 ]
    mass: 118.710000
    reduced_to: 91
  - symbol: Sn # 94
    coordinates: [  0.030703653520568,  0.455022572624261,  0.606916541264720 ]
    mass: 118.710000
    reduced_to: 91
  - symbol: Sn # 95
    coordinates: [  0.364036986853902,  0.455022572624261,  0.606916541264720 ]
    mass: 118.710000
    reduced_to: 91
  - symbol: Sn # 96
    coordinates: [  0.697370320187235,  0.455022572624261,  0.606916541264720 ]
    mass: 118.710000
    reduced_to: 91
  - symbol: Sn # 97
    coordinates: [  0.030703653520568,  0.788355905957594,  0.606916541264720 ]
    mass: 118.710000
    reduced_to: 91
  - symbol: Sn # 98
    coordinates: [  0.364036986853902,  0.788355905957594,  0.606916541264720 ]
    mass: 118.710000
    reduced_to: 91
  - symbol: Sn # 99
    coordinates: [  0.697370320187235,  0.788355905957594,  0.606916541264720 ]
    mass: 118.710000
    reduced_to: 91
  - symbol: Sn # 100
    coordinates: [  0.111189054461555,  0.035576150917079,  0.088525994503542 ]
    mass: 118.710000
    reduced_to: 100
  - symbol: Sn # 101
    coordinates: [  0.444522387794889,  0.035576150917079,  0.088525994503542 ]
    mass: 118.710000
    reduced_to: 100
  - symbol: Sn # 102
    coordinates: [  0.777855721128222,  0.035576150917079,  0.088525994503542 ]
    mass: 118.710000
    reduced_to: 100
  - symbol: Sn # 103
    coordinates: [  0.111189054461555,  0.368909484250412,  0.088525994503542 ]
    mass: 118.710000
    reduced_to: 100
  - symbol: Sn # 104
    coordinates: [  0.444522387794889,  0.368909484250412,  0.088525994503542 ]
    mass: 118.710000
    reduced_to: 100
  - symbol: Sn # 105
    coordinates: [  0.777855721128222,  0.368909484250412,  0.088525994503542 ]
    mass: 118.710000
    reduced_to: 100
  - symbol: Sn # 106
    coordinates: [  0.111189054461555,  0.702242817583746,  0.088525994503542 ]
    mass: 118.710000
    reduced_to: 100
  - symbol: Sn # 107
    coordinates: [  0.444522387794889,  0.702242817583746,  0.088525994503542 ]
    mass: 118.710000
    reduced_to: 100
  - symbol: Sn # 108
    coordinates: [  0.777855721128222,  0.702242817583746,  0.088525994503542 ]
    mass: 118.710000
    reduced_to: 100

displacements:
- atom:    1
  displacement:
    [   0.0100000000000000,  0.0000000000000000,  0.0000000000000000 ]
  forces:
  - [  -0.0105491653084755,  0.0023365952074528,  0.0247745960950851 ]
  - [   0.0001450255513191,  0.0023356592282653,  0.0246131643652916 ]
  - [   0.0001230761408806,  0.0023367563262582,  0.0250097587704659 ]
  - [  -0.0001444797962904,  0.0023361993953586,  0.0248129367828369 ]
  - [  -0.0002374220639467,  0.0020397584885359,  0.0248020458966494 ]
  - [  -0.0002286676317453,  0.0026252707466483,  0.0248223915696144 ]
  - [  -0.0001452807337046,  0.0023368559777737,  0.0248138066381216 ]
  - [  -0.0002370830625296,  0.0026334738358855,  0.0248028114438057 ]
  - [  -0.0002286545932293,  0.0020471857860684,  0.0248228777199984 ]
  - [   0.0004680105485022, -0.0005936585366726, -0.0040397718548775 ]
  - [   0.0004616077058017, -0.0005973149091005, -0.0040589217096567 ]
  - [   0.0004456336610019, -0.0005903616547585, -0.0040500853210688 ]
  - [   0.0004574093036354, -0.0005914773792028, -0.0040470995008945 ]
  - [   0.0004611751064658, -0.0005959542468190, -0.0040502417832613 ]
  - [   0.0004568598233163, -0.0005942247807980, -0.0040525738149881 ]
  - [   0.0004630587063730, -0.0005957400426269, -0.0040471553802490 ]
  - [   0.0004579145461321, -0.0005881832912564, -0.0040519870817661 ]
  - [   0.0004547275602818, -0.0005967039614916, -0.0040508378297091 ]
  - [   0.0005887448205613, -0.0016219723038375, -0.0018025357276201 ]
  - [   0.0006104080821387, -0.0016195653006434, -0.0033762864768505 ]
  - [  -0.0000093309208751, -0.0016201217658818, -0.0025766361504793 ]
  - [  -0.0000005430047167, -0.0017379331402481, -0.0025603380054235 ]
  - [   0.0000000441650627, -0.0015044133178890, -0.0025898516178131 ]
  - [  -0.0000829838390928, -0.0016207625158131, -0.0025760363787413 ]
  - [  -0.0000008328352123, -0.0015041809529066, -0.0025604814291000 ]
  - [   0.0000006141926860, -0.0017360555939376, -0.0025898311287165 ]
  - [  -0.0000830811040942, -0.0016200155951083, -0.0025761704891920 ]
  - [   0.0011178301647305,  0.0007957449997775, -0.0130429528653622 ]
  - [   0.0011733858846128,  0.0008019570959732, -0.0079473964869976 ]
  - [  -0.0012629030970857,  0.0007988059660420, -0.0105332564562559 ]
  - [  -0.0012567393714562,  0.0009861907456070, -0.0104194842278957 ]
  - [  -0.0012545828940347,  0.0006063303444535, -0.0106482915580273 ]
  - [  -0.0012163608334959,  0.0007975419284776, -0.0105325840413570 ]
  - [  -0.0012567496160045,  0.0006071636453271, -0.0104175340384245 ]
  - [  -0.0012557106092572,  0.0009920792654157, -0.0106498487293720 ]
  - [  -0.0012162879575044,  0.0007984885014594, -0.0105316136032343 ]
  - [   0.0011102473363280, -0.0013504335656762, -0.0354480594396591 ]
  - [   0.0013847302179784, -0.0013469620607793, -0.0354200042784214 ]
  - [   0.0013855341821909, -0.0013595999917015, -0.0354661084711552 ]
  - [   0.0011143456213176, -0.0013591182650998, -0.0354477986693382 ]
  - [   0.0013861912302673, -0.0013609651941806, -0.0354201868176460 ]
  - [   0.0013861013576388, -0.0013498326297849, -0.0354679375886917 ]
  - [   0.0013481099158525, -0.0013540431391448, -0.0354440212249756 ]
  - [   0.0013861812185496, -0.0013541979715228, -0.0354489535093307 ]
  - [   0.0013864696957171, -0.0013547815615311, -0.0354390293359756 ]
  - [  -0.0021762326359749,  0.0017884818371385, -0.0059689097106457 ]
  - [  -0.0021521998569369,  0.0017699471209198, -0.0059257000684738 ]
  - [  -0.0021479022689164,  0.0017863891553134, -0.0060188584029675 ]
  - [  -0.0021751150488853,  0.0017710686661303, -0.0059676840901375 ]
  - [  -0.0021495670080185,  0.0017896150238812, -0.0059270933270454 ]
  - [  -0.0021489476785064,  0.0017702233744785, -0.0060175023972988 ]
  - [  -0.0021077496930957,  0.0017782689537853, -0.0059728138148785 ]
  - [  -0.0021038893610239,  0.0017782629001886, -0.0059661641716957 ]
  - [  -0.0021023494191468,  0.0017783810617402, -0.0059804804623127 ]
  - [  -0.0012569325044751,  0.0025128731504083,  0.0454247370362282 ]
  - [  -0.0012555839493871,  0.0023888493888080,  0.0455335192382336 ]
  - [  -0.0012795468792319,  0.0024515660479665,  0.0454813539981842 ]
  - [  -0.0012570656836033,  0.0023877872154117,  0.0454242341220379 ]
  - [  -0.0012560896575451,  0.0025134598836303,  0.0455352514982224 ]
  - [  -0.0012787301093340,  0.0024513585958630,  0.0454807579517365 ]
  - [  -0.0012661740183830,  0.0024504507891834,  0.0454563200473785 ]
  - [  -0.0012645209208131,  0.0024509150534868,  0.0455041080713272 ]
  - [  -0.0012827459722757,  0.0024520512670279,  0.0454812422394753 ]
  - [  -0.0002438886003802,  0.0036057725083083, -0.0131836477667093 ]
  - [  -0.0002437630610075,  0.0036758910864592, -0.0131528265774250 ]
  - [  -0.0001426016096957,  0.0036407038569450, -0.0131732374429703 ]
  - [  -0.0001844900834840,  0.0036405203863978, -0.0131686590611935 ]
  - [  -0.0001842627389124,  0.0036398330703378, -0.0131700672209263 ]
  - [  -0.0001983236870728,  0.0036393711343408, -0.0131710581481457 ]
  - [  -0.0002436309005134,  0.0036756407935172, -0.0131863802671432 ]
  - [  -0.0002437925140839,  0.0036053778603673, -0.0131526943296194 ]
  - [  -0.0001432827993995,  0.0036414759233594, -0.0131714232265949 ]
  - [   0.0010784855112433, -0.0051374547183514,  0.0198627505451441 ]
  - [   0.0009045694023371, -0.0051374332979321,  0.0199642255902290 ]
  - [   0.0009080264717340, -0.0051371632143855,  0.0197592433542013 ]
  - [   0.0010926425457001, -0.0051382323727012,  0.0198630169034004 ]
  - [   0.0010531079024076, -0.0051318854093552,  0.0198521073907614 ]
  - [   0.0010525141842663, -0.0051443972624838,  0.0198703706264496 ]
  - [   0.0010920353233814, -0.0051355729810894,  0.0198615342378616 ]
  - [   0.0010530534200370, -0.0051417173817754,  0.0198529735207558 ]
  - [   0.0010540871880949, -0.0051298704929650,  0.0198702551424503 ]
  - [   0.0009612835710868, -0.0029773991554976, -0.0139297563582659 ]
  - [   0.0008463599951938, -0.0029776059091091, -0.0139135904610157 ]
  - [   0.0009588625980541, -0.0029788110405207, -0.0138952415436506 ]
  - [   0.0009588408283889, -0.0029789023101330, -0.0139243304729462 ]
  - [   0.0009797725360841, -0.0029779840260744, -0.0139104928821325 ]
  - [   0.0009578620083630, -0.0029785372316837, -0.0138980820775032 ]
  - [   0.0009588704560883, -0.0029773302376270, -0.0139237158000469 ]
  - [   0.0009797145612538, -0.0029767602682114, -0.0139116868376732 ]
  - [   0.0009597404277883, -0.0029781404882669, -0.0138971880078316 ]
  - [   0.0001980777306017,  0.0026779617182910,  0.0165290348231792 ]
  - [   0.0002034612116404,  0.0026845550164580,  0.0165548957884312 ]
  - [   0.0001834984868765,  0.0026916153728962,  0.0165258422493935 ]
  - [   0.0001946526754182,  0.0026998529210687,  0.0165353864431381 ]
  - [   0.0002011383767240,  0.0026792045682669,  0.0165476463735104 ]
  - [   0.0001904290693346,  0.0026804329827428,  0.0165258534252644 ]
  - [   0.0001963753602467,  0.0026798723265529,  0.0165340900421143 ]
  - [   0.0001998092047870,  0.0026934351772070,  0.0165478512644768 ]
  - [   0.0001894827000797,  0.0026866178959608,  0.0165285058319569 ]
  - [   0.0024373293854296, -0.0003568392712623, -0.0207490883767605 ]
  - [   0.0024793997872621, -0.0037134811282158, -0.0213247984647751 ]
  - [   0.0008260728791356, -0.0020071500912309, -0.0210354216396809 ]
  - [   0.0024142325855792, -0.0036286504473537, -0.0207484383136034 ]
  - [   0.0024535455740988, -0.0003298118244857, -0.0213233903050423 ]
  - [   0.0008264150819741, -0.0020064380951226, -0.0210346393287182 ]
  - [   0.0007829086389393, -0.0020081119146198, -0.0210616439580917 ]
  - [   0.0007823838386685, -0.0020080280955881, -0.0210079513490200 ]
  - [   0.0007737774867564, -0.0020079591777176, -0.0210348982363939 ]
- atom:    1
  displacement:
    [  -0.0100000000000000,  0.0000000000000000,  0.0000000000000000 ]
  forces:
  - [   0.0106700221076608,  0.0023371186107397,  0.0247602909803391 ]
  - [  -0.0000017732381821,  0.0023374101147056,  0.0250083953142166 ]
  - [  -0.0000240951776505,  0.0023353183642030,  0.0246126949787140 ]
  - [   0.0002665463835001,  0.0023354087024927,  0.0248132515698671 ]
  - [   0.0003491565585136,  0.0026245117187500,  0.0248224250972271 ]
  - [   0.0003578849136829,  0.0020403824746609,  0.0248014628887177 ]
  - [   0.0002658758312464,  0.0023372843861580,  0.0248140282928944 ]
  - [   0.0003495700657368,  0.0020473562180996,  0.0248230639845133 ]
  - [   0.0003581196069717,  0.0026333769783378,  0.0248020794242620 ]
  - [   0.0004494814202189, -0.0005936035886407, -0.0040596853941679 ]
  - [   0.0004537194035947, -0.0005914894863963, -0.0040406435728073 ]
  - [   0.0004720189608634, -0.0005960902199149, -0.0040481500327587 ]
  - [   0.0004595839418471, -0.0005958778783679, -0.0040531698614359 ]
  - [   0.0004566777497530, -0.0005915192887187, -0.0040492061525583 ]
  - [   0.0004594097845256, -0.0005941633135080, -0.0040476415306330 ]
  - [   0.0004533738829195, -0.0005913618952036, -0.0040531828999519 ]
  - [   0.0004590954631567, -0.0005983617156744, -0.0040479879826307 ]
  - [   0.0004630573093891, -0.0005910592153668, -0.0040488503873348 ]
  - [  -0.0008276647422463, -0.0016194470226765, -0.0033752750605345 ]
  - [  -0.0008071335032582, -0.0016219313256443, -0.0018015969544649 ]
  - [  -0.0002089609042741, -0.0016201324760914, -0.0025765653699636 ]
  - [  -0.0002176447742386, -0.0015050158835948, -0.0025902483612299 ]
  - [  -0.0002170466614189, -0.0017377738840878, -0.0025600176304579 ]
  - [  -0.0001336810237262, -0.0016207930166274, -0.0025759804993868 ]
  - [  -0.0002178547438234, -0.0017360537312925, -0.0025899782776833 ]
  - [  -0.0002164689940400, -0.0015037388075143, -0.0025602821260691 ]
  - [  -0.0001339951268164, -0.0016200516838580, -0.0025761630386114 ]
  - [  -0.0036202017217875,  0.0008007274591364, -0.0079404544085264 ]
  - [  -0.0035550016909838,  0.0007968954159878, -0.0130368098616600 ]
  - [  -0.0011827949201688,  0.0007988479337655, -0.0105331987142563 ]
  - [  -0.0011859443038702,  0.0006061750464141, -0.0106487628072500 ]
  - [  -0.0011845249682665,  0.0009858680423349, -0.0104185640811920 ]
  - [  -0.0012248312123120,  0.0007973542087711, -0.0105325020849705 ]