phonopy:
  version: "2.37.1"
  frequency_unit_conversion_factor: 15.633302
  symmetry_tolerance: 1.00000e-05

space_group:
  type: "Imm2"
  number: 44
  Hall_symbol: "I 2 -2"

primitive_matrix:
- [ -1.000000000000000, -0.000000000000000,  0.000000000000000 ]
- [  0.000000000000000, -0.000000000000000, -1.000000000000000 ]
- [  0.000000000000000, -1.000000000000000,  0.000000000000000 ]

supercell_matrix:
- [   3,   0,   0 ]
- [   0,   3,   0 ]
- [   0,   0,   3 ]

primitive_cell:
  lattice:
  - [    -4.645055033702911,     0.000000000000000,     0.000000000000000 ] # a
  - [     2.285718844433376,     2.327242220767925,    -3.306957463593817 ] # b
  - [     0.063616239643210,    -4.644619673941110,     0.000000000000000 ] # c
  points:
  - symbol: Li # 1
    coordinates: [  0.080592418074740,  0.083215545556598,  0.997376878564636 ]
    mass: 6.940000
  - symbol: Li # 2
    coordinates: [  0.585838664174680,  0.083215544954572,  0.502623121409305 ]
    mass: 6.940000
  - symbol: Li # 3
    coordinates: [  0.833852359803310,  0.583852345646857,  0.250000001770300 ]
    mass: 6.940000
  - symbol: Sn # 4
    coordinates: [  0.333049891301974,  0.583049897543666,  0.749999997684894 ]
    mass: 118.710000
  reciprocal_lattice: # without 2pi
  - [    -0.215282702302631,    -0.002948675444313,    -0.150875243185255 ] # a*
  - [    -0.000000000000000,    -0.000000000000000,    -0.302392761627256 ] # b*
  - [    -0.000000000000000,    -0.215302881656932,    -0.151517508755763 ] # c*

unit_cell:
  lattice:
  - [     4.645055033702911,     0.000000000000000,     0.000000000000000 ] # a
  - [    -0.063616239643210,     4.644619673941110,     0.000000000000000 ] # b
  - [    -2.285718844433377,    -2.327242220767925,     3.306957463593817 ] # c
  points:
  - symbol: Li # 1
    coordinates: [  0.919407581925261,  0.002623121435364,  0.916784454443402 ]
    mass: 6.940000
    reduced_to: 1
  - symbol: Li # 2
    coordinates: [  0.414161335825320,  0.497376878590695,  0.916784455045428 ]
    mass: 6.940000
    reduced_to: 2
  - symbol: Li # 3
    coordinates: [  0.166147640196690,  0.749999998229700,  0.416147654353143 ]
    mass: 6.940000
    reduced_to: 3
  - symbol: Sn # 4
    coordinates: [  0.666950108698026,  0.250000002315106,  0.416950102456334 ]
    mass: 118.710000
    reduced_to: 4

supercell:
  lattice:
  - [    13.935165101108733,     0.000000000000000,     0.000000000000000 ] # a
  - [    -0.190848718929629,    13.933859021823329,     0.000000000000000 ] # b
  - [    -6.857156533300131,    -6.981726662303775,     9.920872390781451 ] # c
  points:
  - symbol: Li # 1
    coordinates: [  0.306469193975087,  0.000874373811788,  0.305594818147801 ]
    mass: 6.940000
    reduced_to: 1
  - symbol: Li # 2
    coordinates: [  0.639802527308420,  0.000874373811788,  0.305594818147801 ]
    mass: 6.940000
    reduced_to: 1
  - symbol: Li # 3
    coordinates: [  0.973135860641754,  0.000874373811788,  0.305594818147801 ]
    mass: 6.940000
    reduced_to: 1
  - symbol: Li # 4
    coordinates: [  0.306469193975087,  0.334207707145121,  0.305594818147801 ]
    mass: 6.940000
    reduced_to: 1
  - symbol: Li # 5
    coordinates: [  0.639802527308420,  0.334207707145121,  0.305594818147801 ]
    mass: 6.940000
    reduced_to: 1
  - symbol: Li # 6
    coordinates: [  0.973135860641754,  0.334207707145121,  0.305594818147801 ]
    mass: 6.940000
    reduced_to: 1
  - symbol: Li # 7
    coordinates: [  0.306469193975087,  0.667541040478455,  0.305594818147801 ]
    mass: 6.940000
    reduced_to: 1
  - symbol: Li # 8
    coordinates: [  0.639802527308420,  0.667541040478455,  0.305594818147801 ]
    mass: 6.940000
    reduced_to: 1
  - symbol: Li # 9
    coordinates: [  0.973135860641754,  0.667541040478455,  0.305594818147801 ]
    mass: 6.940000
    reduced_to: 1
  - symbol: Li # 10
    coordinates: [  0.306469193975087,  0.000874373811788,  0.638928151481134 ]
    mass: 6.940000
    reduced_to: 1
  - symbol: Li # 11
    coordinates: [  0.639802527308420,  0.000874373811788,  0.638928151481134 ]
    mass: 6.940000
    reduced_to: 1
  - symbol: Li # 12
    coordinates: [  0.973135860641754,  0.000874373811788,  0.638928151481134 ]
    mass: 6.940000
    reduced_to: 1
  - symbol: Li # 13
    coordinates: [  0.306469193975087,  0.334207707145121,  0.638928151481134 ]
    mass: 6.940000
    reduced_to: 1
  - symbol: Li # 14
    coordinates: [  0.639802527308420,  0.334207707145121,  0.638928151481134 ]
    mass: 6.940000
    reduced_to: 1
  - symbol: Li # 15
    coordinates: [  0.973135860641754,  0.334207707145121,  0.638928151481134 ]
    mass: 6.940000
    reduced_to: 1
  - symbol: Li # 16
    coordinates: [  0.306469193975087,  0.667541040478455,  0.638928151481134 ]
    mass: 6.940000
    reduced_to: 1
  - symbol: Li # 17
    coordinates: [  0.639802527308420,  0.667541040478455,  0.638928151481134 ]
    mass: 6.940000
    reduced_to: 1
  - symbol: Li # 18
    coordinates: [  0.973135860641754,  0.667541040478455,  0.638928151481134 ]
    mass: 6.940000
    reduced_to: 1
  - symbol: Li # 19
    coordinates: [  0.306469193975087,  0.000874373811788,  0.972261484814467 ]
    mass: 6.940000
    reduced_to: 1
  - symbol: Li # 20
    coordinates: [  0.639802527308420,  0.000874373811788,  0.972261484814467 ]
    mass: 6.940000
    reduced_to: 1
  - symbol: Li # 21
    coordinates: [  0.973135860641754,  0.000874373811788,  0.972261484814467 ]
    mass: 6.940000
    reduced_to: 1
  - symbol: Li # 22
    coordinates: [  0.306469193975087,  0.334207707145121,  0.972261484814467 ]
    mass: 6.940000
    reduced_to: 1
  - symbol: Li # 23
    coordinates: [  0.639802527308420,  0.334207707145121,  0.972261484814467 ]
    mass: 6.940000
    reduced_to: 1
  - symbol: Li # 24
    coordinates: [  0.973135860641754,  0.334207707145121,  0.972261484814467 ]
    mass: 6.940000
    reduced_to: 1
  - symbol: Li # 25
    coordinates: [  0.306469193975087,  0.667541040478455,  0.972261484814467 ]
    mass: 6.940000
    reduced_to: 1
  - symbol: Li # 26
    coordinates: [  0.639802527308420,  0.667541040478455,  0.972261484814467 ]
    mass: 6.940000
    reduced_to: 1
  - symbol: Li # 27
    coordinates: [  0.973135860641754,  0.667541040478455,  0.972261484814467 ]
    mass: 6.940000
    reduced_to: 1
  - symbol: Li # 28
    coordinates: [  0.138053778608440,  0.165792292863565,  0.305594818348476 ]
    mass: 6.940000
    reduced_to: 28
  - symbol: Li # 29
    coordinates: [  0.471387111941773,  0.165792292863565,  0.305594818348476 ]
    mass: 6.940000
    reduced_to: 28
  - symbol: Li # 30
    coordinates: [  0.804720445275107,  0.165792292863565,  0.305594818348476 ]
    mass: 6.940000
    reduced_to: 28
  - symbol: Li # 31
    coordinates: [  0.138053778608440,  0.499125626196898,  0.305594818348476 ]
    mass: 6.940000
    reduced_to: 28
  - symbol: Li # 32
    coordinates: [  0.471387111941773,  0.499125626196898,  0.305594818348476 ]
    mass: 6.940000
    reduced_to: 28
  - symbol: Li # 33
    coordinates: [  0.804720445275107,  0.499125626196898,  0.305594818348476 ]
    mass: 6.940000
    reduced_to: 28
  - symbol: Li # 34
    coordinates: [  0.138053778608440,  0.832458959530232,  0.305594818348476 ]
    mass: 6.940000
    reduced_to: 28
  - symbol: Li # 35
    coordinates: [  0.471387111941773,  0.832458959530232,  0.305594818348476 ]
    mass: 6.940000
    reduced_to: 28
  - symbol: Li # 36
    coordinates: [  0.804720445275107,  0.832458959530232,  0.305594818348476 ]
    mass: 6.940000
    reduced_to: 28
  - symbol: Li # 37
    coordinates: [  0.138053778608440,  0.165792292863565,  0.638928151681809 ]
    mass: 6.940000
    reduced_to: 28
  - symbol: Li # 38
    coordinates: [  0.471387111941773,  0.165792292863565,  0.638928151681809 ]
    mass: 6.940000
    reduced_to: 28
  - symbol: Li # 39
    coordinates: [  0.804720445275107,  0.165792292863565,  0.638928151681809 ]
    mass: 6.940000
    reduced_to: 28
  - symbol: Li # 40
    coordinates: [  0.138053778608440,  0.499125626196898,  0.638928151681809 ]
    mass: 6.940000
    reduced_to: 28
  - symbol: Li # 41
    coordinates: [  0.471387111941773,  0.499125626196898,  0.638928151681809 ]
    mass: 6.940000
    reduced_to: 28
  - symbol: Li # 42
    coordinates: [  0.804720445275107,  0.499125626196898,  0.638928151681809 ]
    mass: 6.940000
    reduced_to: 28
  - symbol: Li # 43
    coordinates: [  0.138053778608440,  0.832458959530232,  0.638928151681809 ]
    mass: 6.940000
    reduced_to: 28
  - symbol: Li # 44
    coordinates: [  0.471387111941773,  0.832458959530232,  0.638928151681809 ]
    mass: 6.940000
    reduced_to: 28
  - symbol: Li # 45
    coordinates: [  0.804720445275107,  0.832458959530232,  0.638928151681809 ]
    mass: 6.940000
    reduced_to: 28
  - symbol: Li # 46
    coordinates: [  0.138053778608440,  0.165792292863565,  0.972261485015143 ]
    mass: 6.940000
    reduced_to: 28
  - symbol: Li # 47
    coordinates: [  0.471387111941773,  0.165792292863565,  0.972261485015143 ]
    mass: 6.940000
    reduced_to: 28
  - symbol: Li # 48
    coordinates: [  0.804720445275107,  0.165792292863565,  0.972261485015143 ]
    mass: 6.940000
    reduced_to: 28
  - symbol: Li # 49
    coordinates: [  0.138053778608440,  0.499125626196898,  0.972261485015143 ]
    mass: 6.940000
    reduced_to: 28
  - symbol: Li # 50
    coordinates: [  0.471387111941773,  0.499125626196898,  0.972261485015143 ]
    mass: 6.940000
    reduced_to: 28
  - symbol: Li # 51
    coordinates: [  0.804720445275107,  0.499125626196898,  0.972261485015143 ]
    mass: 6.940000
    reduced_to: 28
  - symbol: Li # 52
    coordinates: [  0.138053778608440,  0.832458959530232,  0.972261485015143 ]
    mass: 6.940000
    reduced_to: 28
  - symbol: Li # 53
    coordinates: [  0.471387111941773,  0.832458959530232,  0.972261485015143 ]
    mass: 6.940000
    reduced_to: 28
  - symbol: Li # 54
    coordinates: [  0.804720445275107,  0.832458959530232,  0.972261485015143 ]
    mass: 6.940000
    reduced_to: 28
  - symbol: Li # 55
    coordinates: [  0.055382546732230,  0.249999999409900,  0.138715884784381 ]
    mass: 6.940000
    reduced_to: 55
  - symbol: Li # 56
    coordinates: [  0.388715880065563,  0.249999999409900,  0.138715884784381 ]
    mass: 6.940000
    reduced_to: 55
  - symbol: Li # 57
    coordinates: [  0.722049213398897,  0.249999999409900,  0.138715884784381 ]
    mass: 6.940000
    reduced_to: 55
  - symbol: Li # 58
    coordinates: [  0.055382546732230,  0.583333332743233,  0.138715884784381 ]
    mass: 6.940000
    reduced_to: 55
  - symbol: Li # 59
    coordinates: [  0.388715880065563,  0.583333332743233,  0.138715884784381 ]
    mass: 6.940000
    reduced_to: 55
  - symbol: Li # 60
    coordinates: [  0.722049213398897,  0.583333332743233,  0.138715884784381 ]
    mass: 6.940000
    reduced_to: 55
  - symbol: Li # 61
    coordinates: [  0.055382546732230,  0.916666666076567,  0.138715884784381 ]
    mass: 6.940000
    reduced_to: 55
  - symbol: Li # 62
    coordinates: [  0.388715880065563,  0.916666666076567,  0.138715884784381 ]
    mass: 6.940000
    reduced_to: 55
  - symbol: Li # 63
    coordinates: [  0.722049213398897,  0.916666666076567,  0.138715884784381 ]
    mass: 6.940000
    reduced_to: 55
  - symbol: Li # 64
    coordinates: [  0.055382546732230,  0.249999999409900,  0.472049218117714 ]
    mass: 6.940000
    reduced_to: 55
  - symbol: Li # 65
    coordinates: [  0.388715880065563,  0.249999999409900,  0.472049218117714 ]
    mass: 6.940000
    reduced_to: 55
  - symbol: Li # 66
    coordinates: [  0.722049213398897,  0.249999999409900,  0.472049218117714 ]
    mass: 6.940000
    reduced_to: 55
  - symbol: Li # 67
    coordinates: [  0.055382546732230,  0.583333332743233,  0.472049218117714 ]
    mass: 6.940000
    reduced_to: 55
  - symbol: Li # 68
    coordinates: [  0.388715880065563,  0.583333332743233,  0.472049218117714 ]
    mass: 6.940000
    reduced_to: 55
  - symbol: Li # 69
    coordinates: [  0.722049213398897,  0.583333332743233,  0.472049218117714 ]
    mass: 6.940000
    reduced_to: 55
  - symbol: Li # 70
    coordinates: [  0.055382546732230,  0.916666666076567,  0.472049218117714 ]
    mass: 6.940000
    reduced_to: 55
  - symbol: Li # 71
    coordinates: [  0.388715880065563,  0.916666666076567,  0.472049218117714 ]
    mass: 6.940000
    reduced_to: 55
  - symbol: Li # 72
    coordinates: [  0.722049213398897,  0.916666666076567,  0.472049218117714 ]
    mass: 6.940000
    reduced_to: 55
  - symbol: Li # 73
    coordinates: [  0.055382546732230,  0.249999999409900,  0.805382551451048 ]
    mass: 6.940000
    reduced_to: 55
  - symbol: Li # 74
    coordinates: [  0.388715880065563,  0.249999999409900,  0.805382551451048 ]
    mass: 6.940000
    reduced_to: 55
  - symbol: Li # 75
    coordinates: [  0.722049213398897,  0.249999999409900,  0.805382551451048 ]
    mass: 6.940000
    reduced_to: 55
  - symbol: Li # 76
    coordinates: [  0.055382546732230,  0.583333332743233,  0.805382551451048 ]
    mass: 6.940000
    reduced_to: 55
  - symbol: Li # 77
    coordinates: [  0.388715880065563,  0.583333332743233,  0.805382551451048 ]
    mass: 6.940000
    reduced_to: 55
  - symbol: Li # 78
    coordinates: [  0.722049213398897,  0.583333332743233,  0.805382551451048 ]
    mass: 6.940000
    reduced_to: 55
  - symbol: Li # 79
    coordinates: [  0.055382546732230,  0.916666666076567,  0.805382551451048 ]
    mass: 6.940000
    reduced_to: 55
  - symbol: Li # 80
    coordinates: [  0.388715880065563,  0.916666666076567,  0.805382551451048 ]
    mass: 6.940000
    reduced_to: 55
  - symbol: Li # 81
    coordinates: [  0.722049213398897,  0.916666666076567,  0.805382551451048 ]
    mass: 6.940000
    reduced_to: 55
  - symbol: Sn # 82
    coordinates: [  0.222316702899342,  0.083333334105035,  0.138983367485445 ]
    mass: 118.710000
    reduced_to: 82
  - symbol: Sn # 83
    coordinates: [  0.555650036232675,  0.083333334105035,  0.138983367485445 ]
    mass: 118.710000
    reduced_to: 82
  - symbol: Sn # 84
    coordinates: [  0.888983369566009,  0.083333334105035,  0.138983367485445 ]
    mass: 118.710000
    reduced_to: 82
  - symbol: Sn # 85
    coordinates: [  0.222316702899342,  0.416666667438369,  0.138983367485445 ]
    mass: 118.710000
    reduced_to: 82
  - symbol: Sn # 86
    coordinates: [  0.555650036232675,  0.416666667438369,  0.138983367485445 ]
    mass: 118.710000
    reduced_to: 82
  - symbol: Sn # 87
    coordinates: [  0.888983369566009,  0.416666667438369,  0.138983367485445 ]
    mass: 118.710000
    reduced_to: 82
  - symbol: Sn # 88
    coordinates: [  0.222316702899342,  0.750000000771702,  0.138983367485445 ]
    mass: 118.710000
    reduced_to: 82
  - symbol: Sn # 89
    coordinates: [  0.555650036232675,  0.750000000771702,  0.138983367485445 ]
    mass: 118.710000
    reduced_to: 82
  - symbol: Sn # 90
    coordinates: [  0.888983369566009,  0.750000000771702,  0.138983367485445 ]
    mass: 118.710000
    reduced_to: 82
  - symbol: Sn # 91
    coordinates: [  0.222316702899342,  0.083333334105035,  0.472316700818778 ]
    mass: 118.710000
    reduced_to: 82
  - symbol: Sn # 92
    coordinates: [  0.555650036232675,  0.083333334105035,  0.472316700818778 ]
    mass: 118.710000
    reduced_to: 82
  - symbol: Sn # 93
    coordinates: [  0.888983369566009,  0.083333334105035,  0.472316700818778 ]
    mass: 118.710000
    reduced_to: 82
  - symbol: Sn # 94
    coordinates: [  0.222316702899342,  0.416666667438369,  0.472316700818778 ]
    mass: 118.710000
    reduced_to: 82
  - symbol: Sn # 95
    coordinates: [  0.555650036232675,  0.416666667438369,  0.472316700818778 ]
    mass: 118.710000
    reduced_to: 82
  - symbol: Sn # 96
    coordinates: [  0.888983369566009,  0.416666667438369,  0.472316700818778 ]
    mass: 118.710000
    reduced_to: 82
  - symbol: Sn # 97
    coordinates: [  0.222316702899342,  0.750000000771702,  0.472316700818778 ]
    mass: 118.710000
    reduced_to: 82
  - symbol: Sn # 98
    coordinates: [  0.555650036232675,  0.750000000771702,  0.472316700818778 ]
    mass: 118.710000
    reduced_to: 82
  - symbol: Sn # 99
    coordinates: [  0.888983369566009,  0.750000000771702,  0.472316700818778 ]
    mass: 118.710000
    reduced_to: 82
  - symbol: Sn # 100
    coordinates: [  0.222316702899342,  0.083333334105035,  0.805650034152111 ]
    mass: 118.710000
    reduced_to: 82
  - symbol: Sn # 101
    coordinates: [  0.555650036232675,  0.083333334105035,  0.805650034152111 ]
    mass: 118.710000
    reduced_to: 82
  - symbol: Sn # 102
    coordinates: [  0.888983369566009,  0.083333334105035,  0.805650034152111 ]
    mass: 118.710000
    reduced_to: 82
  - symbol: Sn # 103
    coordinates: [  0.222316702899342,  0.416666667438369,  0.805650034152111 ]
    mass: 118.710000
    reduced_to: 82
  - symbol: Sn # 104
    coordinates: [  0.555650036232675,  0.416666667438369,  0.805650034152111 ]
    mass: 118.710000
    reduced_to: 82
  - symbol: Sn # 105
    coordinates: [  0.888983369566009,  0.416666667438369,  0.805650034152111 ]
    mass: 118.710000
    reduced_to: 82
  - symbol: Sn # 106
    coordinates: [  0.222316702899342,  0.750000000771702,  0.805650034152111 ]
    mass: 118.710000
    reduced_to: 82
  - symbol: Sn # 107
    coordinates: [  0.555650036232675,  0.750000000771702,  0.805650034152111 ]
    mass: 118.710000
    reduced_to: 82
  - symbol: Sn # 108
    coordinates: [  0.888983369566009,  0.750000000771702,  0.805650034152111 ]
    mass: 118.710000
    reduced_to: 82

displacements:
- atom:    1
  displacement:
    [   0.0100000000000000,  0.0000000000000000,  0.0000000000000000 ]
  forces:
  - [  -0.0576536245644093, -0.0313169807195663, -0.0008953745709732 ]
  - [  -0.0316725112497807, -0.0313057303428650, -0.0003142664209008 ]
  - [  -0.0316713750362396, -0.0312966704368591, -0.0005746949464083 ]
  - [  -0.0315619632601738, -0.0312956348061562, -0.0004241187125444 ]
  - [  -0.0315275900065899, -0.0313283242285252, -0.0004355646669865 ]
  - [  -0.0315061733126640, -0.0312929116189480, -0.0004219971597195 ]
  - [  -0.0315553322434425, -0.0313046947121620, -0.0004255913372617 ]
  - [  -0.0315160527825356, -0.0312845781445503, -0.0004304337489884 ]
  - [  -0.0315263345837593, -0.0313269123435020, -0.0004346184432507 ]
  - [  -0.0313992872834206, -0.0315866954624653, -0.0003339129034430 ]
  - [  -0.0314027667045593, -0.0309174284338951, -0.0005833624163643 ]
  - [  -0.0314931124448776, -0.0313049666583538, -0.0004265817115083 ]
  - [  -0.0314109660685062, -0.0309783555567265, -0.0003189441049471 ]
  - [  -0.0314191170036793, -0.0315919220447540, -0.0005456549115479 ]
  - [  -0.0314975902438164, -0.0312981382012367, -0.0004341158783063 ]
  - [  -0.0314813256263733, -0.0312979742884636, -0.0004220642149448 ]
  - [  -0.0314813777804375, -0.0312979221343994, -0.0004505980759859 ]
  - [  -0.0314844287931919, -0.0313030891120434, -0.0004251264035702 ]
  - [  -0.0313991196453571, -0.0314134694635868, -0.0004695893730968 ]
  - [  -0.0314926952123642, -0.0313040949404240, -0.0004262573784217 ]
  - [  -0.0314031168818474, -0.0311741661280394, -0.0004047787515447 ]
  - [  -0.0314835011959076, -0.0313049033284187, -0.0004193504573777 ]
  - [  -0.0314848236739635, -0.0313057079911232, -0.0004263755399734 ]
  - [  -0.0314806103706360, -0.0312965810298920, -0.0004496402107179 ]
  - [  -0.0314112454652786, -0.0311886351555586, -0.0004677489632741 ]
  - [  -0.0315015576779842, -0.0313043370842934, -0.0004304246976972 ]
  - [  -0.0314193107187748, -0.0314148142933846, -0.0004101200029254 ]
  - [   0.0314154960215092,  0.0314938984811306, -0.0003402506408747 ]
  - [   0.0316730104386806,  0.0326373800635338, -0.0004957575583830 ]
  - [   0.0309017710387707,  0.0319068655371666, -0.0004371398536023 ]
  - [   0.0308690331876278,  0.0319090746343136, -0.0004289009666536 ]
  - [   0.0308753699064255,  0.0319000184535980, -0.0004295339167584 ]
  - [   0.0308505985885859,  0.0319015756249428, -0.0004314172547311 ]
  - [   0.0314513556659222,  0.0324054546654224, -0.0003461614251137 ]
  - [   0.0314327254891396,  0.0314758494496346, -0.0004865005612373 ]
  - [   0.0309032462537289,  0.0319102294743061, -0.0004349686205387 ]
  - [   0.0298143923282623,  0.0318920798599720,  0.0002169145736843 ]
  - [   0.0308927521109581,  0.0319057703018188, -0.0004094444448128 ]
  - [   0.0298645012080669,  0.0319011472165585, -0.0010141953825951 ]
  - [   0.0308777913451195,  0.0318986773490906, -0.0004438511095941 ]
  - [   0.0308221168816090,  0.0319034196436405, -0.0004351995885372 ]
  - [   0.0308800525963306,  0.0319136120378971, -0.0004166979342699 ]
  - [   0.0308802817016840,  0.0319081358611584, -0.0004314885009080 ]
  - [   0.0308212377130985,  0.0319087654352188, -0.0004304398316890 ]
  - [   0.0308768749237061,  0.0318983420729637, -0.0004272647202015 ]
  - [   0.0306968446820974,  0.0319254919886589, -0.0004422795027494 ]
  - [   0.0308685600757599,  0.0319214053452015, -0.0004512441810220 ]
  - [   0.0308747384697199,  0.0318912044167519, -0.0004106896230951 ]
  - [   0.0307048577815294,  0.0319169685244560, -0.0004290733486414 ]
  - [   0.0308679938316345,  0.0318984054028988, -0.0004502154188231 ]
  - [   0.0308681484311819,  0.0319226570427418, -0.0004202830605209 ]
  - [   0.0311022493988276,  0.0319088250398636, -0.0004056617617607 ]
  - [   0.0308479573577642,  0.0319117084145546, -0.0004559627268463 ]
  - [   0.0308146886527538,  0.0319015607237816, -0.0004298784770072 ]
  - [   0.0026850542053580, -0.0026378403417766,  0.0035337365698069 ]
  - [   0.0027009584009647, -0.0023744464851916,  0.0036087275948375 ]
  - [   0.0025480494368821, -0.0025085271336138,  0.0035654478706419 ]
  - [   0.0026907925494015, -0.0023773983120918,  0.0035280776210129 ]
  - [   0.0026831633877009, -0.0026334903668612,  0.0035978215746582 ]
  - [   0.0025484147481620, -0.0025085892993957,  0.0035664360038936 ]
  - [   0.0060603655874729, -0.0025066130328923,  0.0062354430556297 ]
  - [   0.0062351226806641, -0.0025104638189077,  0.0006807508179918 ]
  - [   0.0025841663591564, -0.0025101422797889,  0.0035671265795827 ]
  - [   0.0025299447588623, -0.0024189101532102,  0.0034829478245229 ]
  - [   0.0021997313015163, -0.0026200336869806,  0.0034991260617971 ]
  - [   0.0024914881214499, -0.0026477980427444,  0.0036522224545479 ]
  - [   0.0025480510666966, -0.0025096540339291,  0.0035664474125952 ]
  - [   0.0025373226962984, -0.0025107173714787,  0.0035653421655297 ]
  - [   0.0025479379110038, -0.0025102577637881,  0.0035640448331833 ]
  - [   0.0024942851159722, -0.0026540947146714,  0.0034739796537906 ]
  - [   0.0022212010808289, -0.0025671494659036,  0.0035665361210704 ]
  - [   0.0025138689670712, -0.0024051060900092,  0.0036440193653107 ]
  - [   0.0024826233275235, -0.0025073215365410,  0.0035662369336933 ]
  - [   0.0026740171015263, -0.0025156363844872,  0.0038285343907773 ]
  - [   0.0026688501238823, -0.0025100409984589,  0.0032742475159466 ]
  - [   0.0025140242651105, -0.0025107786059380,  0.0035652038641274 ]
  - [   0.0025474950671196, -0.0025188997387886,  0.0035508037544787 ]
  - [   0.0025493651628494, -0.0024995282292366,  0.0035818470641971 ]
  - [   0.0025116801261902, -0.0025120675563812,  0.0035630799829960 ]
  - [   0.0025487914681435, -0.0024989098310471,  0.0035499767400324 ]
  - [   0.0025486759841442, -0.0025196820497513,  0.0035833944566548 ]
  - [  -0.0015238774940372,  0.0016125431284308, -0.0025299657136202 ]
  - [  -0.0019660675898194,  0.0019423468038440, -0.0027011707425117 ]
  - [  -0.0019761063158512,  0.0018608868122101, -0.0027413871139288 ]
  - [  -0.0019203107804060,  0.0018983576446772, -0.0026965960860252 ]
  - [  -0.0019339136779308,  0.0019261371344328, -0.0027105417102575 ]
  - [  -0.0019252812489867,  0.0018965825438499, -0.0027089659124613 ]
  - [  -0.0014817956835032,  0.0018739039078355, -0.0027175582945347 ]
  - [  -0.0019708061590791,  0.0018714731559157, -0.0026639755815268 ]
  - [  -0.0019523249939084,  0.0019521880894899, -0.0027278456836939 ]
  - [   0.0066371187567711,  0.0020139152184129, -0.0084400717169046 ]
  - [   0.0073092412203550,  0.0018367003649473,  0.0036168899387121 ]
  - [  -0.0017409734427929,  0.0019101249054074, -0.0026986822485924 ]
  - [  -0.0018978910520673,  0.0019261660054326, -0.0026509389281273 ]
  - [  -0.0018922826275229,  0.0019052587449551, -0.0027403384447098 ]
  - [  -0.0019574658945203,  0.0019094552844763, -0.0027157235890627 ]
  - [  -0.0019078152254224,  0.0019049039110541, -0.0026650223881006 ]
  - [  -0.0019014840945601,  0.0019175084307790, -0.0027513392269611 ]
  - [  -0.0019354475662112,  0.0019105840474367, -0.0027034226804972 ]
  - [  -0.0019052810966969,  0.0019687265157700, -0.0027578752487898 ]
  - [  -0.0019497934263200,  0.0018876157701015, -0.0026866514235735 ]
  - [  -0.0019260508706793,  0.0018608681857586, -0.0026727393269539 ]
  - [  -0.0019103372469544,  0.0018337890505791, -0.0027460083365440 ]
  - [  -0.0019541536457837,  0.0018881112337112, -0.0027051530778408 ]
  - [  -0.0019039072794840,  0.0019617993384600, -0.0026332922279835 ]
  - [  -0.0019220374524593,  0.0018946155905724, -0.0026804804801941 ]
  - [  -0.0019244067370892,  0.0018974225968122, -0.0026932097971439 ]
  - [  -0.0019438322633505,  0.0019091926515102, -0.0027204826474190 ]
- atom:    1
  displacement:
    [  -0.0100000000000000,  0.0000000000000000,  0.0000000000000000 ]
  forces:
  - [  -0.0052998629398644, -0.0312965288758278, -0.0002885650610551 ]
  - [  -0.0313017331063747, -0.0313021615147591, -0.0005514089716598 ]
  - [  -0.0313005074858665, -0.0312954820692539, -0.0002981219440699 ]
  - [  -0.0314066186547279, -0.0312989130616188, -0.0004429352702573 ]
  - [  -0.0314433947205544, -0.0312668271362782, -0.0004356189165264 ]
  - [  -0.0314515009522438, -0.0313309393823147, -0.0004194956272840 ]
  - [  -0.0314000621438026, -0.0313026458024979, -0.0004225740558468 ]
  - [  -0.0314613021910191, -0.0313230603933334, -0.0004313787794672 ]
  - [  -0.0314422063529491, -0.0312658101320267, -0.0004345960915089 ]
  - [  -0.0315697491168976, -0.0310002155601978, -0.0005400911904871 ]
  - [  -0.0315667204558849, -0.0316676124930382, -0.0002906242152676 ]
  - [  -0.0314620546996593, -0.0313019268214703, -0.0004229933256283 ]
  - [  -0.0315585657954216, -0.0316214710474014, -0.0005561023717746 ]
  - [  -0.0315502583980560, -0.0310072116553783, -0.0003294151974842 ]
  - [  -0.0314692333340645, -0.0312950424849987, -0.0004372381372377 ]
  - [  -0.0314884334802628, -0.0312952026724815, -0.0004496630281210 ]
  - [  -0.0314883366227150, -0.0312952995300293, -0.0004202444106340 ]
  - [  -0.0314689576625824, -0.0313045792281628, -0.0004245005548000 ]
  - [  -0.0315697677433491, -0.0311807282269001, -0.0004020838532597 ]
  - [  -0.0314614996314049, -0.0313047878444195, -0.0004253650549799 ]
  - [  -0.0315669700503349, -0.0314205959439278, -0.0004649567417800 ]
  - [  -0.0314906872808933, -0.0313053280115128, -0.0004447048995644 ]
  - [  -0.0314691588282585, -0.0313029699027538, -0.0004251741338521 ]
  - [  -0.0314875841140747, -0.0312978178262711, -0.0004222445422783 ]
  - [  -0.0315586030483246, -0.0314054861664772, -0.0004027908435091 ]
  - [  -0.0314731821417809, -0.0313043147325516, -0.0004313049139455 ]
  - [  -0.0315504707396030, -0.0311804916709661, -0.0004602830158547 ]
  - [   0.0302934534847736,  0.0323449298739433, -0.0005290653789416 ]
  - [   0.0300856009125710,  0.0311928261071444, -0.0003524343483150 ]
  - [   0.0308229252696037,  0.0319121330976486, -0.0004324505280238 ]
  - [   0.0308573022484779,  0.0319111421704292, -0.0004404026549309 ]
  - [   0.0308641530573368,  0.0319062098860741, -0.0004196551744826 ]
  - [   0.0308730807155371,  0.0319022238254547, -0.0004314833204262 ]
  - [   0.0302520915865898,  0.0313789620995522, -0.0005150269716978 ]
  - [   0.0303079411387444,  0.0323267653584480, -0.0003829076886177 ]
  - [   0.0308226682245731,  0.0319110788404942, -0.0004348233342171 ]
  - [   0.0319126993417740,  0.0318981520831585, -0.0010525760008022 ]
  - [   0.0308340452611446,  0.0319148525595665, -0.0004553991602734 ]
  - [   0.0318605676293373,  0.0319030024111271,  0.0001593865454197 ]
  - [   0.0308485627174377,  0.0319207832217216, -0.0004277155967429 ]
  - [   0.0308999046683311,  0.0319011285901070, -0.0004297076957300 ]
  - [   0.0308595038950443,  0.0318913981318474, -0.0004334263503551 ]
  - [   0.0308531112968922,  0.0318823307752609, -0.0004131073364988 ]
  - [   0.0309047773480415,  0.0319112055003643, -0.0004405557410792 ]
  - [   0.0308482907712460,  0.0319229476153851, -0.0004439782351255 ]
  - [   0.0310423523187637,  0.0319048166275024, -0.0004255697131157 ]
  - [   0.0308556966483593,  0.0318992547690868, -0.0004203482531011 ]
  - [   0.0308644492179155,  0.0319160521030426, -0.0004405613290146 ]
  - [   0.0310199260711670,  0.0318986289203167, -0.0004445295780897 ]
  - [   0.0308562181890011,  0.0319207198917866, -0.0004218706162646 ]
  - [   0.0308576337993145,  0.0318970121443272, -0.0004505509277806 ]
  - [   0.0306247714906931,  0.0319124385714531, -0.0004508253186941 ]
  - [   0.0308817811310291,  0.0319087989628315, -0.0004180858377367 ]
  - [   0.0309210028499365,  0.0319042690098286, -0.0004238336114213 ]
  - [   0.0024030976928771, -0.0023821198847145,  0.0035978066734970 ]
  - [   0.0023897918872535, -0.0026456438936293,  0.0035233399830759 ]
  - [   0.0025414840783924, -0.0025095324963331,  0.0035670681390911 ]
  - [   0.0023979176767170, -0.0026410324499011,  0.0036027110181749 ]
  - [   0.0024075945839286, -0.0023852302692831,  0.0035344576463103 ]
  - [   0.0025422340258956, -0.0025102365761995,  0.0035653109662235 ]
  - [  -0.0010134254116565, -0.0025131651200354,  0.0008460814715363 ]
  - [  -0.0011025980347767, -0.0025116498582065,  0.0063959322869778 ]
  - [   0.0025056323502213, -0.0025103678926826,  0.0035659172572196 ]
  - [   0.0025628651492298, -0.0026025453116745,  0.0036486694589257 ]