phonopy:
  version: "2.37.1"
  frequency_unit_conversion_factor: 15.633302
  symmetry_tolerance: 1.00000e-05

space_group:
  type: "P1"
  number: 1
  Hall_symbol: "P 1"

primitive_matrix:
- [ -1.000000000000000,  0.000000000000000,  0.000000000000000 ]
- [  0.000000000000000,  1.000000000000000,  0.000000000000000 ]
- [  0.000000000000000,  0.000000000000000, -1.000000000000000 ]

supercell_matrix:
- [   2,   0,   0 ]
- [   0,   2,   0 ]
- [   0,   0,   2 ]

primitive_cell:
  lattice:
  - [    -5.661541100944806,     0.000000000000000,     0.000000000000000 ] # a
  - [    -0.001660040037379,     6.222821322957928,     0.000000000000000 ] # b
  - [    -0.001316896725010,     0.001869641825408,    -9.797697127608361 ] # c
  points:
  - symbol: Sn # 1
    coordinates: [  0.977399732609295,  0.016303074729366,  0.073396463455992 ]
    mass: 118.710000
  - symbol: Sn # 2
    coordinates: [  0.977896975035800,  0.016019439361350,  0.407260043542459 ]
    mass: 118.710000
  - symbol: Sn # 3
    coordinates: [  0.978004544030069,  0.516619781173252,  0.073523332011591 ]
    mass: 118.710000
  - symbol: Sn # 4
    coordinates: [  0.977994408826356,  0.016904004798359,  0.739703758931874 ]
    mass: 118.710000
  - symbol: Sn # 5
    coordinates: [  0.477570809324854,  0.516115238328448,  0.239611500434705 ]
    mass: 118.710000
  - symbol: Sn # 6
    coordinates: [  0.477537551712024,  0.016503339764511,  0.905884681439672 ]
    mass: 118.710000
  - symbol: Sn # 7
    coordinates: [  0.477680831781040,  0.016156799225955,  0.239625940272158 ]
    mass: 118.710000
  - symbol: Sn # 8
    coordinates: [  0.477784888319616,  0.516618543963013,  0.906434404966861 ]
    mass: 118.710000
  - symbol: Sn # 9
    coordinates: [  0.477317759699345,  0.016516594838612,  0.572742015945337 ]
    mass: 118.710000
  - symbol: Sn # 10
    coordinates: [  0.977970050662041,  0.516685967791768,  0.740024155924430 ]
    mass: 118.710000
  - symbol: Sn # 11
    coordinates: [  0.977910247805163,  0.515783265256718,  0.407575231931248 ]
    mass: 118.710000
  - symbol: Sn # 12
    coordinates: [  0.478138368041188,  0.516414226168044,  0.573322809732247 ]
    mass: 118.710000
  reciprocal_lattice: # without 2pi
  - [    -0.176630352437628,    -0.000047119054468,     0.000023731682443 ] # a*
  - [    -0.000000000000000,     0.160698812982254,     0.000030665289826 ] # b*
  - [    -0.000000000000000,     0.000000000000000,    -0.102064800225571 ] # c*

unit_cell:
  lattice:
  - [     5.661541100944805,     0.000000000000000,     0.000000000000000 ] # a
  - [    -0.001660040037379,     6.222821322957926,     0.000000000000000 ] # b
  - [     0.001316896725010,    -0.001869641825408,     9.797697127608361 ] # c
  points:
  - symbol: Sn # 1
    coordinates: [  0.022600267390705,  0.016303074729366,  0.926603536544008 ]
    mass: 118.710000
    reduced_to: 1
  - symbol: Sn # 2
    coordinates: [  0.022103024964200,  0.016019439361350,  0.592739956457541 ]
    mass: 118.710000
    reduced_to: 2
  - symbol: Sn # 3
    coordinates: [  0.021995455969931,  0.516619781173253,  0.926476667988409 ]
    mass: 118.710000
    reduced_to: 3
  - symbol: Sn # 4
    coordinates: [  0.022005591173644,  0.016904004798359,  0.260296241068126 ]
    mass: 118.710000
    reduced_to: 4
  - symbol: Sn # 5
    coordinates: [  0.522429190675146,  0.516115238328448,  0.760388499565295 ]
    mass: 118.710000
    reduced_to: 5
  - symbol: Sn # 6
    coordinates: [  0.522462448287976,  0.016503339764511,  0.094115318560328 ]
    mass: 118.710000
    reduced_to: 6
  - symbol: Sn # 7
    coordinates: [  0.522319168218960,  0.016156799225955,  0.760374059727842 ]
    mass: 118.710000
    reduced_to: 7
  - symbol: Sn # 8
    coordinates: [  0.522215111680384,  0.516618543963013,  0.093565595033139 ]
    mass: 118.710000
    reduced_to: 8
  - symbol: Sn # 9
    coordinates: [  0.522682240300655,  0.016516594838612,  0.427257984054663 ]
    mass: 118.710000
    reduced_to: 9
  - symbol: Sn # 10
    coordinates: [  0.022029949337959,  0.516685967791768,  0.259975844075570 ]
    mass: 118.710000
    reduced_to: 10
  - symbol: Sn # 11
    coordinates: [  0.022089752194837,  0.515783265256718,  0.592424768068752 ]
    mass: 118.710000
    reduced_to: 11
  - symbol: Sn # 12
    coordinates: [  0.521861631958812,  0.516414226168044,  0.426677190267753 ]
    mass: 118.710000
    reduced_to: 12

supercell:
  lattice:
  - [    11.323082201889610,     0.000000000000000,     0.000000000000000 ] # a
  - [    -0.003320080074758,    12.445642645915852,     0.000000000000000 ] # b
  - [     0.002633793450019,    -0.003739283650817,    19.595394255216721 ] # c
  points:
  - symbol: Sn # 1
    coordinates: [  0.011300133695352,  0.008151537364683,  0.463301768272004 ]
    mass: 118.710000
    reduced_to: 1
  - symbol: Sn # 2
    coordinates: [  0.511300133695352,  0.008151537364683,  0.463301768272004 ]
    mass: 118.710000
    reduced_to: 1
  - symbol: Sn # 3
    coordinates: [  0.011300133695352,  0.508151537364683,  0.463301768272004 ]
    mass: 118.710000
    reduced_to: 1
  - symbol: Sn # 4
    coordinates: [  0.511300133695352,  0.508151537364683,  0.463301768272004 ]
    mass: 118.710000
    reduced_to: 1
  - symbol: Sn # 5
    coordinates: [  0.011300133695352,  0.008151537364683,  0.963301768272004 ]
    mass: 118.710000
    reduced_to: 1
  - symbol: Sn # 6
    coordinates: [  0.511300133695352,  0.008151537364683,  0.963301768272004 ]
    mass: 118.710000
    reduced_to: 1
  - symbol: Sn # 7
    coordinates: [  0.011300133695352,  0.508151537364683,  0.963301768272004 ]
    mass: 118.710000
    reduced_to: 1
  - symbol: Sn # 8
    coordinates: [  0.511300133695352,  0.508151537364683,  0.963301768272004 ]
    mass: 118.710000
    reduced_to: 1
  - symbol: Sn # 9
    coordinates: [  0.011051512482100,  0.008009719680675,  0.296369978228771 ]
    mass: 118.710000
    reduced_to: 9
  - symbol: Sn # 10
    coordinates: [  0.511051512482100,  0.008009719680675,  0.296369978228771 ]
    mass: 118.710000
    reduced_to: 9
  - symbol: Sn # 11
    coordinates: [  0.011051512482100,  0.508009719680675,  0.296369978228771 ]
    mass: 118.710000
    reduced_to: 9
  - symbol: Sn # 12
    coordinates: [  0.511051512482100,  0.508009719680675,  0.296369978228771 ]
    mass: 118.710000
    reduced_to: 9
  - symbol: Sn # 13
    coordinates: [  0.011051512482100,  0.008009719680675,  0.796369978228771 ]
    mass: 118.710000
    reduced_to: 9
  - symbol: Sn # 14
    coordinates: [  0.511051512482100,  0.008009719680675,  0.796369978228771 ]
    mass: 118.710000
    reduced_to: 9
  - symbol: Sn # 15
    coordinates: [  0.011051512482100,  0.508009719680675,  0.796369978228771 ]
    mass: 118.710000
    reduced_to: 9
  - symbol: Sn # 16
    coordinates: [  0.511051512482100,  0.508009719680675,  0.796369978228771 ]
    mass: 118.710000
    reduced_to: 9
  - symbol: Sn # 17
    coordinates: [  0.010997727984965,  0.258309890586626,  0.463238333994205 ]
    mass: 118.710000
    reduced_to: 17
  - symbol: Sn # 18
    coordinates: [  0.510997727984965,  0.258309890586626,  0.463238333994205 ]
    mass: 118.710000
    reduced_to: 17
  - symbol: Sn # 19
    coordinates: [  0.010997727984965,  0.758309890586626,  0.463238333994205 ]
    mass: 118.710000
    reduced_to: 17
  - symbol: Sn # 20
    coordinates: [  0.510997727984965,  0.758309890586626,  0.463238333994205 ]
    mass: 118.710000
    reduced_to: 17
  - symbol: Sn # 21
    coordinates: [  0.010997727984965,  0.258309890586626,  0.963238333994205 ]
    mass: 118.710000
    reduced_to: 17
  - symbol: Sn # 22
    coordinates: [  0.510997727984965,  0.258309890586626,  0.963238333994205 ]
    mass: 118.710000
    reduced_to: 17
  - symbol: Sn # 23
    coordinates: [  0.010997727984965,  0.758309890586626,  0.963238333994205 ]
    mass: 118.710000
    reduced_to: 17
  - symbol: Sn # 24
    coordinates: [  0.510997727984965,  0.758309890586626,  0.963238333994205 ]
    mass: 118.710000
    reduced_to: 17
  - symbol: Sn # 25
    coordinates: [  0.011002795586822,  0.008452002399180,  0.130148120534063 ]
    mass: 118.710000
    reduced_to: 25
  - symbol: Sn # 26
    coordinates: [  0.511002795586822,  0.008452002399180,  0.130148120534063 ]
    mass: 118.710000
    reduced_to: 25
  - symbol: Sn # 27
    coordinates: [  0.011002795586822,  0.508452002399180,  0.130148120534063 ]
    mass: 118.710000
    reduced_to: 25
  - symbol: Sn # 28
    coordinates: [  0.511002795586822,  0.508452002399180,  0.130148120534063 ]
    mass: 118.710000
    reduced_to: 25
  - symbol: Sn # 29
    coordinates: [  0.011002795586822,  0.008452002399180,  0.630148120534063 ]
    mass: 118.710000
    reduced_to: 25
  - symbol: Sn # 30
    coordinates: [  0.511002795586822,  0.008452002399180,  0.630148120534063 ]
    mass: 118.710000
    reduced_to: 25
  - symbol: Sn # 31
    coordinates: [  0.011002795586822,  0.508452002399180,  0.630148120534063 ]
    mass: 118.710000
    reduced_to: 25
  - symbol: Sn # 32
    coordinates: [  0.511002795586822,  0.508452002399180,  0.630148120534063 ]
    mass: 118.710000
    reduced_to: 25
  - symbol: Sn # 33
    coordinates: [  0.261214595337573,  0.258057619164224,  0.380194249782647 ]
    mass: 118.710000
    reduced_to: 33
  - symbol: Sn # 34
    coordinates: [  0.761214595337573,  0.258057619164224,  0.380194249782647 ]
    mass: 118.710000
    reduced_to: 33
  - symbol: Sn # 35
    coordinates: [  0.261214595337573,  0.758057619164224,  0.380194249782647 ]
    mass: 118.710000
    reduced_to: 33
  - symbol: Sn # 36
    coordinates: [  0.761214595337573,  0.758057619164224,  0.380194249782647 ]
    mass: 118.710000
    reduced_to: 33
  - symbol: Sn # 37
    coordinates: [  0.261214595337573,  0.258057619164224,  0.880194249782647 ]
    mass: 118.710000
    reduced_to: 33
  - symbol: Sn # 38
    coordinates: [  0.761214595337573,  0.258057619164224,  0.880194249782647 ]
    mass: 118.710000
    reduced_to: 33
  - symbol: Sn # 39
    coordinates: [  0.261214595337573,  0.758057619164224,  0.880194249782647 ]
    mass: 118.710000
    reduced_to: 33
  - symbol: Sn # 40
    coordinates: [  0.761214595337573,  0.758057619164224,  0.880194249782647 ]
    mass: 118.710000
    reduced_to: 33
  - symbol: Sn # 41
    coordinates: [  0.261231224143988,  0.008251669882255,  0.047057659280164 ]
    mass: 118.710000
    reduced_to: 41
  - symbol: Sn # 42
    coordinates: [  0.761231224143988,  0.008251669882255,  0.047057659280164 ]
    mass: 118.710000
    reduced_to: 41
  - symbol: Sn # 43
    coordinates: [  0.261231224143988,  0.508251669882255,  0.047057659280164 ]
    mass: 118.710000
    reduced_to: 41
  - symbol: Sn # 44
    coordinates: [  0.761231224143988,  0.508251669882255,  0.047057659280164 ]
    mass: 118.710000
    reduced_to: 41
  - symbol: Sn # 45
    coordinates: [  0.261231224143988,  0.008251669882255,  0.547057659280164 ]
    mass: 118.710000
    reduced_to: 41
  - symbol: Sn # 46
    coordinates: [  0.761231224143988,  0.008251669882255,  0.547057659280164 ]
    mass: 118.710000
    reduced_to: 41
  - symbol: Sn # 47
    coordinates: [  0.261231224143988,  0.508251669882255,  0.547057659280164 ]
    mass: 118.710000
    reduced_to: 41
  - symbol: Sn # 48
    coordinates: [  0.761231224143988,  0.508251669882255,  0.547057659280164 ]
    mass: 118.710000
    reduced_to: 41
  - symbol: Sn # 49
    coordinates: [  0.261159584109480,  0.008078399612977,  0.380187029863921 ]
    mass: 118.710000
    reduced_to: 49
  - symbol: Sn # 50
    coordinates: [  0.761159584109480,  0.008078399612977,  0.380187029863921 ]
    mass: 118.710000
    reduced_to: 49
  - symbol: Sn # 51
    coordinates: [  0.261159584109480,  0.508078399612977,  0.380187029863921 ]
    mass: 118.710000
    reduced_to: 49
  - symbol: Sn # 52
    coordinates: [  0.761159584109480,  0.508078399612977,  0.380187029863921 ]
    mass: 118.710000
    reduced_to: 49
  - symbol: Sn # 53
    coordinates: [  0.261159584109480,  0.008078399612977,  0.880187029863921 ]
    mass: 118.710000
    reduced_to: 49
  - symbol: Sn # 54
    coordinates: [  0.761159584109480,  0.008078399612977,  0.880187029863921 ]
    mass: 118.710000
    reduced_to: 49
  - symbol: Sn # 55
    coordinates: [  0.261159584109480,  0.508078399612977,  0.880187029863921 ]
    mass: 118.710000
    reduced_to: 49
  - symbol: Sn # 56
    coordinates: [  0.761159584109480,  0.508078399612977,  0.880187029863921 ]
    mass: 118.710000
    reduced_to: 49
  - symbol: Sn # 57
    coordinates: [  0.261107555840192,  0.258309271981506,  0.046782797516569 ]
    mass: 118.710000
    reduced_to: 57
  - symbol: Sn # 58
    coordinates: [  0.761107555840192,  0.258309271981506,  0.046782797516569 ]
    mass: 118.710000
    reduced_to: 57
  - symbol: Sn # 59
    coordinates: [  0.261107555840192,  0.758309271981507,  0.046782797516569 ]
    mass: 118.710000
    reduced_to: 57
  - symbol: Sn # 60
    coordinates: [  0.761107555840192,  0.758309271981507,  0.046782797516569 ]
    mass: 118.710000
    reduced_to: 57
  - symbol: Sn # 61
    coordinates: [  0.261107555840192,  0.258309271981506,  0.546782797516569 ]
    mass: 118.710000
    reduced_to: 57
  - symbol: Sn # 62
    coordinates: [  0.761107555840192,  0.258309271981506,  0.546782797516569 ]
    mass: 118.710000
    reduced_to: 57
  - symbol: Sn # 63
    coordinates: [  0.261107555840192,  0.758309271981507,  0.546782797516569 ]
    mass: 118.710000
    reduced_to: 57
  - symbol: Sn # 64
    coordinates: [  0.761107555840192,  0.758309271981507,  0.546782797516569 ]
    mass: 118.710000
    reduced_to: 57
  - symbol: Sn # 65
    coordinates: [  0.261341120150328,  0.008258297419306,  0.213628992027332 ]
    mass: 118.710000
    reduced_to: 65
  - symbol: Sn # 66
    coordinates: [  0.761341120150328,  0.008258297419306,  0.213628992027332 ]
    mass: 118.710000
    reduced_to: 65
  - symbol: Sn # 67
    coordinates: [  0.261341120150328,  0.508258297419306,  0.213628992027332 ]
    mass: 118.710000
    reduced_to: 65
  - symbol: Sn # 68
    coordinates: [  0.761341120150328,  0.508258297419306,  0.213628992027332 ]
    mass: 118.710000
    reduced_to: 65
  - symbol: Sn # 69
    coordinates: [  0.261341120150328,  0.008258297419306,  0.713628992027332 ]
    mass: 118.710000
    reduced_to: 65
  - symbol: Sn # 70
    coordinates: [  0.761341120150328,  0.008258297419306,  0.713628992027332 ]
    mass: 118.710000
    reduced_to: 65
  - symbol: Sn # 71
    coordinates: [  0.261341120150328,  0.508258297419306,  0.713628992027332 ]
    mass: 118.710000
    reduced_to: 65
  - symbol: Sn # 72
    coordinates: [  0.761341120150328,  0.508258297419306,  0.713628992027332 ]
    mass: 118.710000
    reduced_to: 65
  - symbol: Sn # 73
    coordinates: [  0.011014974668979,  0.258342983895884,  0.129987922037785 ]
    mass: 118.710000
    reduced_to: 73
  - symbol: Sn # 74
    coordinates: [  0.511014974668979,  0.258342983895884,  0.129987922037785 ]
    mass: 118.710000
    reduced_to: 73
  - symbol: Sn # 75
    coordinates: [  0.011014974668979,  0.758342983895884,  0.129987922037785 ]
    mass: 118.710000
    reduced_to: 73
  - symbol: Sn # 76
    coordinates: [  0.511014974668979,  0.758342983895884,  0.129987922037785 ]
    mass: 118.710000
    reduced_to: 73
  - symbol: Sn # 77
    coordinates: [  0.011014974668979,  0.258342983895884,  0.629987922037785 ]
    mass: 118.710000
    reduced_to: 73
  - symbol: Sn # 78
    coordinates: [  0.511014974668979,  0.258342983895884,  0.629987922037785 ]
    mass: 118.710000
    reduced_to: 73
  - symbol: Sn # 79
    coordinates: [  0.011014974668979,  0.758342983895884,  0.629987922037785 ]
    mass: 118.710000
    reduced_to: 73
  - symbol: Sn # 80
    coordinates: [  0.511014974668979,  0.758342983895884,  0.629987922037785 ]
    mass: 118.710000
    reduced_to: 73
  - symbol: Sn # 81
    coordinates: [  0.011044876097418,  0.257891632628359,  0.296212384034376 ]
    mass: 118.710000
    reduced_to: 81
  - symbol: Sn # 82
    coordinates: [  0.511044876097418,  0.257891632628359,  0.296212384034376 ]
    mass: 118.710000
    reduced_to: 81
  - symbol: Sn # 83
    coordinates: [  0.011044876097418,  0.757891632628359,  0.296212384034376 ]
    mass: 118.710000
    reduced_to: 81
  - symbol: Sn # 84
    coordinates: [  0.511044876097418,  0.757891632628359,  0.296212384034376 ]
    mass: 118.710000
    reduced_to: 81
  - symbol: Sn # 85
    coordinates: [  0.011044876097418,  0.257891632628359,  0.796212384034376 ]
    mass: 118.710000
    reduced_to: 81
  - symbol: Sn # 86
    coordinates: [  0.511044876097418,  0.257891632628359,  0.796212384034376 ]
    mass: 118.710000
    reduced_to: 81
  - symbol: Sn # 87
    coordinates: [  0.011044876097418,  0.757891632628359,  0.796212384034376 ]
    mass: 118.710000
    reduced_to: 81
  - symbol: Sn # 88
    coordinates: [  0.511044876097418,  0.757891632628359,  0.796212384034376 ]
    mass: 118.710000
    reduced_to: 81
  - symbol: Sn # 89
    coordinates: [  0.260930815979406,  0.258207113084022,  0.213338595133876 ]
    mass: 118.710000
    reduced_to: 89
  - symbol: Sn # 90
    coordinates: [  0.760930815979406,  0.258207113084022,  0.213338595133876 ]
    mass: 118.710000
    reduced_to: 89
  - symbol: Sn # 91
    coordinates: [  0.260930815979406,  0.758207113084022,  0.213338595133876 ]
    mass: 118.710000
    reduced_to: 89
  - symbol: Sn # 92
    coordinates: [  0.760930815979406,  0.758207113084022,  0.213338595133876 ]
    mass: 118.710000
    reduced_to: 89
  - symbol: Sn # 93
    coordinates: [  0.260930815979406,  0.258207113084022,  0.713338595133876 ]
    mass: 118.710000
    reduced_to: 89
  - symbol: Sn # 94
    coordinates: [  0.760930815979406,  0.258207113084022,  0.713338595133876 ]
    mass: 118.710000
    reduced_to: 89
  - symbol: Sn # 95
    coordinates: [  0.260930815979406,  0.758207113084022,  0.713338595133876 ]
    mass: 118.710000
    reduced_to: 89
  - symbol: Sn # 96
    coordinates: [  0.760930815979406,  0.758207113084022,  0.713338595133876 ]
    mass: 118.710000
    reduced_to: 89

displacements:
- atom:    1
  displacement:
    [   0.0100000000000000,  0.0000000000000000,  0.0000000000000000 ]
  forces:
  - [  -0.0195360071957111,  0.0036258846521378,  0.0010771246161312 ]
  - [  -0.0003545566578396,  0.0036280578933656,  0.0010508322156966 ]
  - [  -0.0023946040309966,  0.0036266979295760,  0.0010532634332776 ]
  - [  -0.0023920540697873,  0.0036266455426812,  0.0010531805455685 ]
  - [  -0.0023876961786300,  0.0036291144788265,  0.0010527961421758 ]
  - [  -0.0023885825648904,  0.0036289929412305,  0.0010522659868002 ]
  - [  -0.0023876538034528,  0.0036249319091439,  0.0010518897324800 ]
  - [  -0.0023893723264337,  0.0036256471648812,  0.0010513572487980 ]
  - [   0.0016643152339384, -0.0013521965593100,  0.0137688964605331 ]
  - [   0.0045654503628612, -0.0013512278674170,  0.0137625774368644 ]
  - [   0.0027154067065567, -0.0013535937760025,  0.0137904295697808 ]
  - [   0.0027338459622115, -0.0013547419803217,  0.0137896407395601 ]
  - [   0.0027656599413604, -0.0013543907552958,  0.0137882437556982 ]
  - [   0.0026845650281757, -0.0013545823749155,  0.0137925436720252 ]
  - [   0.0027156032156199, -0.0013547987909988,  0.0137905776500702 ]
  - [   0.0027345942799002, -0.0013546303380281,  0.0137901622802019 ]
  - [   0.0032702749595046, -0.0044164820574224, -0.0015204523224384 ]
  - [   0.0026946272701025, -0.0043734926730394, -0.0015203857328743 ]
  - [   0.0032650972716510, -0.0043207276612520, -0.0015200122725219 ]
  - [   0.0026964321732521, -0.0043634162284434, -0.0015204087831080 ]
  - [   0.0028910008259118, -0.0043682595714927, -0.0015178127214313 ]
  - [   0.0028949147090316, -0.0043694199994206, -0.0015175535809249 ]
  - [   0.0028891544789076, -0.0043690325692296, -0.0015179803594947 ]
  - [   0.0028946278616786, -0.0043687652796507, -0.0015176825691015 ]
  - [   0.0039567332714796, -0.0040229158475995, -0.0085637792944908 ]
  - [   0.0038739815354347, -0.0040220888331532, -0.0085672885179520 ]
  - [   0.0039048357866704, -0.0040217298083007, -0.0085646389052272 ]
  - [   0.0039232000708580, -0.0040225745178759, -0.0085656503215432 ]
  - [   0.0028517281170934, -0.0040219477377832, -0.0085455663502216 ]
  - [   0.0057592224329710, -0.0040220543742180, -0.0085398741066456 ]
  - [   0.0039044821169227, -0.0040226131677628, -0.0085666291415691 ]
  - [   0.0039216117002070, -0.0040226569399238, -0.0085659194737673 ]
  - [  -0.0024777515791357,  0.0010837584268302, -0.0057175019755960 ]
  - [  -0.0024776270147413,  0.0009166015079245, -0.0054348562844098 ]
  - [  -0.0024788472801447,  0.0009618997573853, -0.0057166707701981 ]
  - [  -0.0024796160869300,  0.0011300883488730, -0.0054356972686946 ]
  - [  -0.0027944829780608,  0.0010178507072851, -0.0056007620878518 ]
  - [  -0.0027943570166826,  0.0010263656731695, -0.0055511500686407 ]
  - [  -0.0027936238329858,  0.0010277173714712, -0.0056005544029176 ]
  - [  -0.0027934336103499,  0.0010188140440732, -0.0055502033792436 ]
  - [  -0.0016018706373870,  0.0013271193020046, -0.0090130828320980 ]
  - [  -0.0016003914643079,  0.0013264981098473, -0.0089600086212158 ]
  - [  -0.0016015369910747,  0.0013271326897666, -0.0089926077052951 ]
  - [  -0.0016014589928091,  0.0013274557422847, -0.0089790550991893 ]
  - [   0.0012449545320123,  0.0013233707286417, -0.0067241592332721 ]
  - [   0.0010451058624312,  0.0013289217604324, -0.0110895056277514 ]
  - [  -0.0016022855415940,  0.0013247013557702, -0.0089948037639260 ]
  - [  -0.0016009376849979,  0.0013260440900922, -0.0089800963178277 ]
  - [   0.0031851741950959,  0.0000093129274319, -0.0007164120906964 ]
  - [   0.0029375529848039,  0.0000125535661937,  0.0037936803419143 ]
  - [   0.0001931482111104,  0.0000119750875456,  0.0016379861626774 ]
  - [   0.0001945702242665,  0.0000129822074086,  0.0016219310928136 ]
  - [   0.0001924863317981,  0.0000116929804790,  0.0016549632418901 ]
  - [   0.0001944763935171,  0.0000114413451229,  0.0016050422564149 ]
  - [   0.0001929742284119,  0.0000122594428831,  0.0016354491235688 ]
  - [   0.0001934258325491,  0.0000124590078485,  0.0016223081620410 ]
  - [  -0.0011346663814038, -0.0016198430676013, -0.0024333228357136 ]
  - [  -0.0011357078328729, -0.0016114652389660, -0.0024849388282746 ]
  - [  -0.0011339916381985, -0.0016117074992508, -0.0024330462329090 ]
  - [  -0.0011358358897269, -0.0016197056975216, -0.0024839472025633 ]
  - [  -0.0008229122031480, -0.0015486557967961, -0.0023181973956525 ]
  - [  -0.0008259551250376, -0.0017225053161383, -0.0025985394604504 ]
  - [  -0.0008247744408436, -0.0016789233777672, -0.0023174711968750 ]
  - [  -0.0008250107639469, -0.0015068892389536, -0.0025993071030825 ]
  - [  -0.0055521260946989, -0.0017654100665823, -0.0049532689154148 ]
  - [  -0.0055419979617000, -0.0017668877262622, -0.0036123774480075 ]
  - [  -0.0054015219211578, -0.0017643831670284, -0.0042800204828382 ]
  - [  -0.0054004667326808, -0.0017644758336246, -0.0042813112959266 ]
  - [  -0.0055524632334709, -0.0017662425525486, -0.0035953675396740 ]
  - [  -0.0055425059981644, -0.0017664397601038, -0.0049599595367908 ]
  - [  -0.0054016327485442, -0.0017659561708570, -0.0042801639065146 ]
  - [  -0.0054019251838326, -0.0017658669967204, -0.0042791776359081 ]
  - [   0.0007246344466694,  0.0014593376545236, -0.0044970498420298 ]
  - [   0.0006901493761688,  0.0014591696672142, -0.0044969525188208 ]
  - [   0.0007250702474266,  0.0014598332345486, -0.0044981366954744 ]
  - [   0.0006900737062097,  0.0014600113499910, -0.0044974749907851 ]
  - [   0.0008375829784200,  0.0014578143600374, -0.0045035318471491 ]
  - [   0.0005868811858818,  0.0014630404766649, -0.0044996719807386 ]
  - [   0.0008382098749280,  0.0014609901700169, -0.0045046187005937 ]
  - [   0.0005892007611692,  0.0014561936259270, -0.0045017767697573 ]
  - [   0.0008924810681492,  0.0046749529428780,  0.0157801769673824 ]
  - [   0.0006461837911047,  0.0046789906919003,  0.0157778710126877 ]
  - [   0.0008932942873798,  0.0046751070767641,  0.0157797150313854 ]
  - [   0.0006458812858909,  0.0046723377890885,  0.0157770607620478 ]
  - [   0.0007827311055735,  0.0046764453873038,  0.0157746635377407 ]
  - [   0.0007466783281416,  0.0046755578368902,  0.0157732162624598 ]
  - [   0.0007819478632882,  0.0046784696169198,  0.0157742984592915 ]
  - [   0.0007473703590222,  0.0046787895262241,  0.0157743021845818 ]
  - [   0.0021261079236865,  0.0009535246063024,  0.0036977606359869 ]
  - [   0.0021245803218335,  0.0010489692213014,  0.0035818000324070 ]
  - [   0.0021272287704051,  0.0010485248640180,  0.0036959634162486 ]
  - [   0.0021216506138444,  0.0009528633090667,  0.0035809960681945 ]
  - [   0.0021266739349812,  0.0009538572048768,  0.0035766395740211 ]
  - [   0.0021234776359051,  0.0010482922662050,  0.0036947517655790 ]
  - [   0.0021250525023788,  0.0010495712049305,  0.0035765466745943 ]
  - [   0.0021238704212010,  0.0009560653124936,  0.0036954791285098 ]
- atom:    1
  displacement:
    [  -0.0100000000000000,  0.0000000000000000,  0.0000000000000000 ]
  forces:
  - [   0.0147585021331906,  0.0036235151346773,  0.0010296192485839 ]
  - [  -0.0044209286570549,  0.0036279568448663,  0.0010515665635467 ]
  - [  -0.0023802882060409,  0.0036281847860664,  0.0010533810127527 ]
  - [  -0.0023831869475543,  0.0036268811672926,  0.0010531742591411 ]
  - [  -0.0023909623268992,  0.0036290683783591,  0.0010527139529586 ]
  - [  -0.0023855746258050,  0.0036288686096668,  0.0010525127872825 ]
  - [  -0.0023899364750832,  0.0036249877884984,  0.0010521288495511 ]
  - [  -0.0023868803400546,  0.0036257519386709,  0.0010512655135244 ]
  - [   0.0037839300930500, -0.0013520804932341,  0.0137701462954283 ]
  - [   0.0008826539269648, -0.0013517409097403,  0.0137830702587962 ]
  - [   0.0027322235982865, -0.0013538661878556,  0.0137899816036224 ]
  - [   0.0027169249951839, -0.0013547106646001,  0.0137891899794340 ]
  - [   0.0026822206564248, -0.0013542374363169,  0.0137892803177238 ]
  - [   0.0027624508365989, -0.0013548126444221,  0.0137895327061415 ]
  - [   0.0027349474839866, -0.0013551320880651,  0.0137903355062008 ]
  - [   0.0027151261456311, -0.0013548644492403,  0.0137904882431030 ]
  - [   0.0025160191580653, -0.0043855183757842, -0.0015205410309136 ]
  - [   0.0030897706747055, -0.0043726926669478, -0.0015199596527964 ]
  - [   0.0025215833447874, -0.0043459059670568, -0.0015199393965304 ]
  - [   0.0030908531043679, -0.0043645384721458, -0.0015198513865471 ]
  - [   0.0028971191495657, -0.0043681366369128, -0.0015173605643213 ]
  - [   0.0028893379494548, -0.0043695857748389, -0.0015175864100456 ]
  - [   0.0028952094726264, -0.0043690516613424, -0.0015180988702923 ]
  - [   0.0028886799700558, -0.0043680923990905, -0.0015178075991571 ]
  - [   0.0038734506815672, -0.0040227733552456, -0.0085652582347393 ]
  - [   0.0039522089064121, -0.0040218369103968, -0.0085647683590651 ]
  - [   0.0039238366298378, -0.0040215700864792, -0.0085649192333221 ]
  - [   0.0039038921240717, -0.0040227249264717, -0.0085658021271229 ]
  - [   0.0049761068075895, -0.0040217395871878, -0.0085459258407354 ]
  - [   0.0020657721906900, -0.0040224585682154, -0.0085587464272976 ]
  - [   0.0039214361459017, -0.0040228487923741, -0.0085660833865404 ]
  - [   0.0039044367149472, -0.0040225265547633, -0.0085656661540270 ]
  - [  -0.0031146034598351,  0.0009337604278699, -0.0054339561611414 ]
  - [  -0.0031064986251295,  0.0011000962695107, -0.0057174703106284 ]
  - [  -0.0031118653714657,  0.0011121932184324, -0.0054359589703381 ]
  - [  -0.0031069195829332,  0.0009461781010032, -0.0057167727500200 ]
  - [  -0.0027941968291998,  0.0010259529808536, -0.0055504278279841 ]
  - [  -0.0027946780901402,  0.0010181921534240, -0.0056016892194748 ]
  - [  -0.0027934662066400,  0.0010192792396992, -0.0055501037277281 ]
  - [  -0.0027934713289142,  0.0010273207444698, -0.0056005255319178 ]
  - [  -0.0016020976472646,  0.0013271814677864, -0.0089598372578621 ]
  - [  -0.0016002436168492,  0.0013263982255012, -0.0090125966817141 ]
  - [  -0.0016016063746065,  0.0013271681964397, -0.0089793857187033 ]
  - [  -0.0016015084693208,  0.0013271680800244, -0.0089923785999417 ]
  - [  -0.0042723938822746,  0.0013284243177623, -0.0111062154173851 ]
  - [  -0.0044250679202378,  0.0013227260205895, -0.0067420643754303 ]
  - [  -0.0016023996286094,  0.0013250417541713, -0.0089805684983730 ]
  - [  -0.0016007188241929,  0.0013244951842353, -0.0089934226125479 ]
  - [  -0.0026144245639443,  0.0000126960549096,  0.0038315702695400 ]
  - [  -0.0027308282442391,  0.0000087318767328, -0.0006759788375348 ]
  - [   0.0001938304922078,  0.0000116999945021,  0.0016219422686845 ]
  - [   0.0001942800299730,  0.0000125546685013,  0.0016363511094823 ]
  - [   0.0001927777484525,  0.0000118188145279,  0.0016043125651777 ]
  - [   0.0001942323287949,  0.0000113161004265,  0.0016552960732952 ]
  - [   0.0001932488521561,  0.0000124555226648,  0.0016221231780946 ]
  - [   0.0001932060113177,  0.0000121860175568,  0.0016361033776775 ]
  - [  -0.0011346556711942, -0.0016106851398945, -0.0024849902838469 ]
  - [  -0.0011356815230101, -0.0016204542480409, -0.0024335435591638 ]
  - [  -0.0011339253978804, -0.0016211208421737, -0.0024850275367498 ]
  - [  -0.0011357271578163, -0.0016106890980154, -0.0024322820827365 ]
  - [  -0.0014505051076412, -0.0017104451544583, -0.0026010912843049 ]
  - [  -0.0014432626776397, -0.0015340566169471, -0.0023183249868453 ]
  - [  -0.0014520520344377, -0.0015200844500214, -0.0026003196835518 ]
  - [  -0.0014462091494352, -0.0016937939217314, -0.0023166476748884 ]
  - [  -0.0052593573927879, -0.0017665266059339, -0.0036090223584324 ]
  - [  -0.0052562449127436, -0.0017654541879892, -0.0049488143995404 ]
  - [  -0.0054010655730963, -0.0017647161148489, -0.0042828721925616 ]
  - [  -0.0054009165614843, -0.0017643516184762, -0.0042785103432834 ]