phonopy:
  version: "2.37.1"
  frequency_unit_conversion_factor: 15.633302
  symmetry_tolerance: 1.00000e-05

space_group:
  type: "P1"
  number: 1
  Hall_symbol: "P 1"

primitive_matrix:
- [  1.000000000000000, -0.000000000000000, -0.000000000000000 ]
- [  0.000000000000000, -1.000000000000000,  0.000000000000000 ]
- [  0.000000000000000,  0.000000000000000, -1.000000000000000 ]

supercell_matrix:
- [   2,   0,   0 ]
- [   0,   2,   0 ]
- [   0,   0,   2 ]

primitive_cell:
  lattice:
  - [     5.652667286542728,     0.000000000000000,     0.000000000000000 ] # a
  - [     2.817319645152732,    -4.904332388687989,     0.000000000000000 ] # b
  - [     0.001254444841907,    -0.004676512332431,    -6.223529056524660 ] # c
  points:
  - symbol: Sn # 1
    coordinates: [  0.910432046594357,  0.430238114160450,  0.615381986561068 ]
    mass: 118.710000
  - symbol: Sn # 2
    coordinates: [  0.242843090062486,  0.763145919305141,  0.615293095086497 ]
    mass: 118.710000
  - symbol: Sn # 3
    coordinates: [  0.241684108077368,  0.763269030909651,  0.115304070680457 ]
    mass: 118.710000
  - symbol: Sn # 4
    coordinates: [  0.575862553674322,  0.096399598861098,  0.615176924977196 ]
    mass: 118.710000
  - symbol: Sn # 5
    coordinates: [  0.908766582929830,  0.429737513348110,  0.115123720460349 ]
    mass: 118.710000
  - symbol: Sn # 6
    coordinates: [  0.576357274369684,  0.096876467749592,  0.115424028423692 ]
    mass: 118.710000
  reciprocal_lattice: # without 2pi
  - [     0.176907634804669,     0.101625525231994,    -0.000040705546606 ] # a*
  - [     0.000000000000000,    -0.203901351039447,     0.000153216474781 ] # b*
  - [     0.000000000000000,    -0.000000000000000,    -0.160680538472238 ] # c*

unit_cell:
  lattice:
  - [     5.652667286542728,     0.000000000000000,     0.000000000000000 ] # a
  - [    -2.817319645152732,     4.904332388687989,     0.000000000000000 ] # b
  - [    -0.001254444841907,     0.004676512332431,     6.223529056524660 ] # c
  points:
  - symbol: Sn # 1
    coordinates: [  0.910432046594357,  0.569761885839550,  0.384618013438932 ]
    mass: 118.710000
    reduced_to: 1
  - symbol: Sn # 2
    coordinates: [  0.242843090062486,  0.236854080694859,  0.384706904913503 ]
    mass: 118.710000
    reduced_to: 2
  - symbol: Sn # 3
    coordinates: [  0.241684108077368,  0.236730969090349,  0.884695929319543 ]
    mass: 118.710000
    reduced_to: 3
  - symbol: Sn # 4
    coordinates: [  0.575862553674322,  0.903600401138902,  0.384823075022804 ]
    mass: 118.710000
    reduced_to: 4
  - symbol: Sn # 5
    coordinates: [  0.908766582929830,  0.570262486651890,  0.884876279539651 ]
    mass: 118.710000
    reduced_to: 5
  - symbol: Sn # 6
    coordinates: [  0.576357274369684,  0.903123532250408,  0.884575971576308 ]
    mass: 118.710000
    reduced_to: 6

supercell:
  lattice:
  - [    11.305334573085457,     0.000000000000000,     0.000000000000000 ] # a
  - [    -5.634639290305465,     9.808664777375979,     0.000000000000000 ] # b
  - [    -0.002508889683814,     0.009353024664862,    12.447058113049319 ] # c
  points:
  - symbol: Sn # 1
    coordinates: [  0.455216023297179,  0.284880942919775,  0.192309006719466 ]
    mass: 118.710000
    reduced_to: 1
  - symbol: Sn # 2
    coordinates: [  0.955216023297179,  0.284880942919775,  0.192309006719466 ]
    mass: 118.710000
    reduced_to: 1
  - symbol: Sn # 3
    coordinates: [  0.455216023297179,  0.784880942919775,  0.192309006719466 ]
    mass: 118.710000
    reduced_to: 1
  - symbol: Sn # 4
    coordinates: [  0.955216023297179,  0.784880942919775,  0.192309006719466 ]
    mass: 118.710000
    reduced_to: 1
  - symbol: Sn # 5
    coordinates: [  0.455216023297179,  0.284880942919775,  0.692309006719466 ]
    mass: 118.710000
    reduced_to: 1
  - symbol: Sn # 6
    coordinates: [  0.955216023297179,  0.284880942919775,  0.692309006719466 ]
    mass: 118.710000
    reduced_to: 1
  - symbol: Sn # 7
    coordinates: [  0.455216023297179,  0.784880942919775,  0.692309006719466 ]
    mass: 118.710000
    reduced_to: 1
  - symbol: Sn # 8
    coordinates: [  0.955216023297179,  0.784880942919775,  0.692309006719466 ]
    mass: 118.710000
    reduced_to: 1
  - symbol: Sn # 9
    coordinates: [  0.121421545031243,  0.118427040347429,  0.192353452456751 ]
    mass: 118.710000
    reduced_to: 9
  - symbol: Sn # 10
    coordinates: [  0.621421545031243,  0.118427040347429,  0.192353452456751 ]
    mass: 118.710000
    reduced_to: 9
  - symbol: Sn # 11
    coordinates: [  0.121421545031243,  0.618427040347429,  0.192353452456751 ]
    mass: 118.710000
    reduced_to: 9
  - symbol: Sn # 12
    coordinates: [  0.621421545031243,  0.618427040347429,  0.192353452456751 ]
    mass: 118.710000
    reduced_to: 9
  - symbol: Sn # 13
    coordinates: [  0.121421545031243,  0.118427040347429,  0.692353452456751 ]
    mass: 118.710000
    reduced_to: 9
  - symbol: Sn # 14
    coordinates: [  0.621421545031243,  0.118427040347429,  0.692353452456751 ]
    mass: 118.710000
    reduced_to: 9
  - symbol: Sn # 15
    coordinates: [  0.121421545031243,  0.618427040347429,  0.692353452456751 ]
    mass: 118.710000
    reduced_to: 9
  - symbol: Sn # 16
    coordinates: [  0.621421545031243,  0.618427040347429,  0.692353452456751 ]
    mass: 118.710000
    reduced_to: 9
  - symbol: Sn # 17
    coordinates: [  0.120842054038684,  0.118365484545174,  0.442347964659771 ]
    mass: 118.710000
    reduced_to: 17
  - symbol: Sn # 18
    coordinates: [  0.620842054038684,  0.118365484545174,  0.442347964659771 ]
    mass: 118.710000
    reduced_to: 17
  - symbol: Sn # 19
    coordinates: [  0.120842054038684,  0.618365484545174,  0.442347964659771 ]
    mass: 118.710000
    reduced_to: 17
  - symbol: Sn # 20
    coordinates: [  0.620842054038684,  0.618365484545174,  0.442347964659771 ]
    mass: 118.710000
    reduced_to: 17
  - symbol: Sn # 21
    coordinates: [  0.120842054038684,  0.118365484545174,  0.942347964659771 ]
    mass: 118.710000
    reduced_to: 17
  - symbol: Sn # 22
    coordinates: [  0.620842054038684,  0.118365484545174,  0.942347964659771 ]
    mass: 118.710000
    reduced_to: 17
  - symbol: Sn # 23
    coordinates: [  0.120842054038684,  0.618365484545174,  0.942347964659771 ]
    mass: 118.710000
    reduced_to: 17
  - symbol: Sn # 24
    coordinates: [  0.620842054038684,  0.618365484545174,  0.942347964659771 ]
    mass: 118.710000
    reduced_to: 17
  - symbol: Sn # 25
    coordinates: [  0.287931276837161,  0.451800200569451,  0.192411537511402 ]
    mass: 118.710000
    reduced_to: 25
  - symbol: Sn # 26
    coordinates: [  0.787931276837161,  0.451800200569451,  0.192411537511402 ]
    mass: 118.710000
    reduced_to: 25
  - symbol: Sn # 27
    coordinates: [  0.287931276837161,  0.951800200569451,  0.192411537511402 ]
    mass: 118.710000
    reduced_to: 25
  - symbol: Sn # 28
    coordinates: [  0.787931276837161,  0.951800200569451,  0.192411537511402 ]
    mass: 118.710000
    reduced_to: 25
  - symbol: Sn # 29
    coordinates: [  0.287931276837161,  0.451800200569451,  0.692411537511402 ]
    mass: 118.710000
    reduced_to: 25
  - symbol: Sn # 30
    coordinates: [  0.787931276837161,  0.451800200569451,  0.692411537511402 ]
    mass: 118.710000
    reduced_to: 25
  - symbol: Sn # 31
    coordinates: [  0.287931276837161,  0.951800200569451,  0.692411537511402 ]
    mass: 118.710000
    reduced_to: 25
  - symbol: Sn # 32
    coordinates: [  0.787931276837161,  0.951800200569451,  0.692411537511402 ]
    mass: 118.710000
    reduced_to: 25
  - symbol: Sn # 33
    coordinates: [  0.454383291464915,  0.285131243325945,  0.442438139769825 ]
    mass: 118.710000
    reduced_to: 33
  - symbol: Sn # 34
    coordinates: [  0.954383291464915,  0.285131243325945,  0.442438139769825 ]
    mass: 118.710000
    reduced_to: 33
  - symbol: Sn # 35
    coordinates: [  0.454383291464915,  0.785131243325945,  0.442438139769825 ]
    mass: 118.710000
    reduced_to: 33
  - symbol: Sn # 36
    coordinates: [  0.954383291464915,  0.785131243325945,  0.442438139769825 ]
    mass: 118.710000
    reduced_to: 33
  - symbol: Sn # 37
    coordinates: [  0.454383291464915,  0.285131243325945,  0.942438139769825 ]
    mass: 118.710000
    reduced_to: 33
  - symbol: Sn # 38
    coordinates: [  0.954383291464915,  0.285131243325945,  0.942438139769825 ]
    mass: 118.710000
    reduced_to: 33
  - symbol: Sn # 39
    coordinates: [  0.454383291464915,  0.785131243325945,  0.942438139769825 ]
    mass: 118.710000
    reduced_to: 33
  - symbol: Sn # 40
    coordinates: [  0.954383291464915,  0.785131243325945,  0.942438139769825 ]
    mass: 118.710000
    reduced_to: 33
  - symbol: Sn # 41
    coordinates: [  0.288178637184842,  0.451561766125204,  0.442287985788154 ]
    mass: 118.710000
    reduced_to: 41
  - symbol: Sn # 42
    coordinates: [  0.788178637184842,  0.451561766125204,  0.442287985788154 ]
    mass: 118.710000
    reduced_to: 41
  - symbol: Sn # 43
    coordinates: [  0.288178637184842,  0.951561766125204,  0.442287985788154 ]
    mass: 118.710000
    reduced_to: 41
  - symbol: Sn # 44
    coordinates: [  0.788178637184842,  0.951561766125204,  0.442287985788154 ]
    mass: 118.710000
    reduced_to: 41
  - symbol: Sn # 45
    coordinates: [  0.288178637184842,  0.451561766125204,  0.942287985788154 ]
    mass: 118.710000
    reduced_to: 41
  - symbol: Sn # 46
    coordinates: [  0.788178637184842,  0.451561766125204,  0.942287985788154 ]
    mass: 118.710000
    reduced_to: 41
  - symbol: Sn # 47
    coordinates: [  0.288178637184842,  0.951561766125204,  0.942287985788154 ]
    mass: 118.710000
    reduced_to: 41
  - symbol: Sn # 48
    coordinates: [  0.788178637184842,  0.951561766125204,  0.942287985788154 ]
    mass: 118.710000
    reduced_to: 41

displacements:
- atom:    1
  displacement:
    [   0.0100000000000000,  0.0000000000000000,  0.0000000000000000 ]
  forces:
  - [  -0.0299295783042908,  0.0034253709018230,  0.0030224751681089 ]
  - [  -0.0103280302137136,  0.0033472357317805,  0.0030195254366845 ]
  - [  -0.0126750338822603,  0.0019976925104856,  0.0030201463960111 ]
  - [  -0.0126313893124461,  0.0046879593282938,  0.0030203685164452 ]
  - [  -0.0123666245490313,  0.0033368885051459,  0.0030185165815055 ]
  - [  -0.0123632512986660,  0.0033364123664796,  0.0030195962172002 ]
  - [  -0.0123577751219273,  0.0033411122858524,  0.0030189668759704 ]
  - [  -0.0123564386740327,  0.0033382338006049,  0.0030194392893463 ]
  - [   0.0050822617486119,  0.0007714694365859, -0.0000610770293861 ]
  - [   0.0055974759161472, -0.0039070323109627, -0.0000630235590506 ]
  - [   0.0043644956313074, -0.0013640462420881, -0.0000621358194621 ]
  - [   0.0013460157206282, -0.0013063317164779, -0.0000615612152615 ]
  - [   0.0024311847519130, -0.0013793839607388, -0.0000623232626822 ]
  - [   0.0024316096678376, -0.0013779741711915, -0.0000612342992099 ]
  - [   0.0024277791380882, -0.0013831907417625, -0.0000627367699053 ]
  - [   0.0024347007274628, -0.0013823318295181, -0.0000617875557509 ]
  - [   0.0093547143042088, -0.0001819804310799,  0.0000900945451576 ]
  - [   0.0093552106991410, -0.0004100324586034,  0.0002201715833507 ]
  - [   0.0089444685727358, -0.0002997687552124,  0.0001989317242987 ]
  - [   0.0091594532132149, -0.0003020702861249,  0.0001919295464177 ]
  - [   0.0093538537621498, -0.0001823743805289,  0.0003199614002369 ]
  - [   0.0093531599268317, -0.0004099474754184,  0.0001893597800517 ]
  - [   0.0089443698525429, -0.0002991233486682,  0.0002120710560121 ]
  - [   0.0091594588011503, -0.0003028050996363,  0.0002185144112445 ]
  - [   0.0088184485211968, -0.0042635914869606, -0.0029601217247546 ]
  - [   0.0092509044334292,  0.0003538863675203, -0.0029471067246050 ]
  - [   0.0050771581009030, -0.0021195253357291, -0.0029541808180511 ]
  - [   0.0081232460215688, -0.0021516664419323, -0.0029547605663538 ]
  - [   0.0061737718060613, -0.0020926785655320, -0.0029539661481977 ]
  - [   0.0061713685281575, -0.0020945421420038, -0.0029544166754931 ]
  - [   0.0061746947467327, -0.0020910841412842, -0.0029541016556323 ]
  - [   0.0061693275347352, -0.0020910967141390, -0.0029534641653299 ]
  - [   0.0048587741330266, -0.0023323269560933, -0.0034271378535777 ]
  - [   0.0042622983455658, -0.0023293097037822, -0.0033297049812973 ]
  - [   0.0044710165821016, -0.0022122999653220, -0.0033253352157772 ]
  - [   0.0044673159718513, -0.0024441638961434, -0.0033237617462873 ]
  - [   0.0048564723692834, -0.0023301879409701, -0.0032227621413767 ]
  - [   0.0042648748494685, -0.0023274864070117, -0.0033165339846164 ]
  - [   0.0044674244709313, -0.0022135116159916, -0.0033217947930098 ]
  - [   0.0044671096839011, -0.0024443224538118, -0.0033238665200770 ]
  - [  -0.0094470735639334,  0.0026407148689032,  0.0030091484077275 ]
  - [  -0.0094481855630875,  0.0028724621515721,  0.0031631120946258 ]
  - [  -0.0096462126821280,  0.0027707982808352,  0.0031106080859900 ]
  - [  -0.0098624788224697,  0.0027610480319709,  0.0031200314406306 ]
  - [  -0.0094443149864674,  0.0026402359362692,  0.0032256662379950 ]
  - [  -0.0094525571912527,  0.0028730994090438,  0.0030612817499787 ]
  - [  -0.0096459751948714,  0.0027703030500561,  0.0031192540191114 ]
  - [  -0.0098594995215535,  0.0027612627018243,  0.0031097130849957 ]
- atom:    1
  displacement:
    [  -0.0100000000000000,  0.0000000000000000,  0.0000000000000000 ]
  forces:
  - [   0.0051952907815576,  0.0032522580586374,  0.0030170395039022 ]
  - [  -0.0143869966268539,  0.0033329182770103,  0.0030195342842489 ]
  - [  -0.0120461322367191,  0.0046787629835308,  0.0030193324200809 ]
  - [  -0.0120883788913488,  0.0019876426085830,  0.0030208532698452 ]
  - [  -0.0123495021834970,  0.0033395704813302,  0.0030196409206837 ]
  - [  -0.0123552046716213,  0.0033366270363331,  0.0030204018112272 ]
  - [  -0.0123576400801539,  0.0033367082942277,  0.0030196823645383 ]
  - [  -0.0123566593974829,  0.0033402896951884,  0.0030183936469257 ]
  - [  -0.0004013169091195, -0.0036694945301861, -0.0000622073566774 ]
  - [  -0.0005385945551097,  0.0009953480912372, -0.0000622900115559 ]
  - [   0.0004979002987966, -0.0013686949387193, -0.0000647933120490 ]
  - [   0.0035216601099819, -0.0014136224053800, -0.0000616158140474 ]
  - [   0.0024295481853187, -0.0013789351796731, -0.0000627808185527 ]
  - [   0.0024334883783013, -0.0013814821140841, -0.0000616693941993 ]
  - [   0.0024311055894941, -0.0013830154202878, -0.0000620374048594 ]
  - [   0.0024315053597093, -0.0013799662701786, -0.0000622292136541 ]
  - [   0.0087357461452484, -0.0004094283794984,  0.0002966440515593 ]
  - [   0.0087333424016833, -0.0001747665228322,  0.0001543977996334 ]
  - [   0.0091464063152671, -0.0002953658113256,  0.0002106104657287 ]
  - [   0.0089330188930035, -0.0002980539575219,  0.0002132031513611 ]
  - [   0.0087359650060534, -0.0004083305830136,  0.0001143541885540 ]
  - [   0.0087334588170052, -0.0001765614142641,  0.0002555030805524 ]
  - [   0.0091473758220673, -0.0002952448558062,  0.0002001933171414 ]
  - [   0.0089338347315788, -0.0002990701468661,  0.0001980273664230 ]
  - [   0.0033441714476794,  0.0002161653828807, -0.0029475721530616 ]
  - [   0.0032854431774467, -0.0043925605714321, -0.0029605622403324 ]
  - [   0.0072700581513345, -0.0021007745526731, -0.0029491442255676 ]
  - [   0.0042255343869328, -0.0020671118982136, -0.0029549291357398 ]
  - [   0.0061724213883281, -0.0020917919464409, -0.0029542967677116 ]
  - [   0.0061729685403407, -0.0020905581768602, -0.0029547144658864 ]
  - [   0.0061703622341156, -0.0020936748478562, -0.0029545058496296 ]
  - [   0.0061734891496599, -0.0020933020859957, -0.0029531794134527 ]
  - [   0.0040762186981738, -0.0023285700008273, -0.0032897640485317 ]
  - [   0.0046698125079274, -0.0023317707236856, -0.0033202930353582 ]
  - [   0.0044680768623948, -0.0024447892792523, -0.0033222862984985 ]
  - [   0.0044703483581543, -0.0022139931097627, -0.0033233878202736 ]
  - [   0.0040814923122525, -0.0023265299387276, -0.0033562686294317 ]
  - [   0.0046726986765862, -0.0023299874737859, -0.0033268870320171 ]
  - [   0.0044642058201134, -0.0024459180422127, -0.0033252462744713 ]
  - [   0.0044702016748488, -0.0022135607432574, -0.0033235163427889 ]
  - [  -0.0100717041641474,  0.0028765306342393,  0.0031932301353663 ]
  - [  -0.0100692464038730,  0.0026463684625924,  0.0030376017093658 ]
  - [  -0.0098719932138920,  0.0027560421731323,  0.0031144134700298 ]
  - [  -0.0096584549173713,  0.0027606524527073,  0.0031079344917089 ]
  - [  -0.0100726829841733,  0.0028781788423657,  0.0030315658077598 ]
  - [  -0.0100737065076828,  0.0026460962835699,  0.0031964159570634 ]
  - [  -0.0098731853067875,  0.0027551543898880,  0.0031155089382082 ]
  - [  -0.0096557587385178,  0.0027616112492979,  0.0031216919887811 ]
- atom:    1
  displacement:
    [  -0.0049811611345489,  0.0086711033756760,  0.0000000000000000 ]
  forces:
  - [  -0.0035416353493929, -0.0117403231561184,  0.0030174206476659 ]
  - [  -0.0133625175803900,  0.0023925821296871,  0.0030193177517503 ]
  - [  -0.0133663266897202,  0.0051054554060102,  0.0030200039036572 ]
  - [  -0.0110534299165010,  0.0037799323908985,  0.0030211335979402 ]
  - [  -0.0123548433184624,  0.0033295166213065,  0.0030219501350075 ]
  - [  -0.0123570617288351,  0.0033372144680470,  0.0030198658350855 ]
  - [  -0.0123558323830366,  0.0033357792999595,  0.0030202241614461 ]
  - [  -0.0123575469478965,  0.0033391525503248,  0.0030186185613275 ]
  - [   0.0030031087808311, -0.0023142646532506, -0.0000615578028373 ]
  - [  -0.0010961575899273,  0.0000208613928407, -0.0000621533108642 ]
  - [   0.0014549356419593,  0.0002660775789991, -0.0000626166001894 ]
  - [   0.0029978731181473,  0.0022374885156751, -0.0000634158641333 ]
  - [   0.0024293477181345, -0.0013784394832328, -0.0000628043781035 ]
  - [   0.0024335887283087, -0.0013803006149828, -0.0000622138031758 ]
  - [   0.0024304531980306, -0.0013833534903824, -0.0000619343627477 ]
  - [   0.0024322392418981, -0.0013804363552481, -0.0000628326379228 ]
  - [   0.0089918430894613, -0.0001958600478247,  0.0002117415278917 ]
  - [   0.0087885363027453, -0.0000771846389398,  0.0001533804315841 ]
  - [   0.0090940902009606, -0.0003845366882160,  0.0002119836863130 ]
  - [   0.0089885573834181,  0.0000279573723674,  0.0002978687698487 ]
  - [   0.0089917248114944, -0.0001950344303623,  0.0001999507658184 ]
  - [   0.0087885512039065, -0.0000779932597652,  0.0002573002420831 ]
  - [   0.0090953065082431, -0.0003840726567432,  0.0001988126023207 ]
  - [   0.0089892456308007,  0.0000300965039060,  0.0001114620681619 ]
  - [   0.0027580957394093, -0.0007781709427945, -0.0029472338501364 ]
  - [   0.0067488020285964, -0.0030496576800942, -0.0029537081718445 ]
  - [   0.0067115267738700,  0.0014427427668124, -0.0029614495579153 ]
  - [   0.0051799695938826, -0.0004164011916146, -0.0029551014304161 ]
  - [   0.0061731399036944, -0.0020916243083775, -0.0029545128345490 ]
  - [   0.0061713661998510, -0.0020903623662889, -0.0029550308827311 ]
  - [   0.0061713904142380, -0.0020939800888300, -0.0029554115608335 ]
  - [   0.0061731357127428, -0.0020938310772181, -0.0029530122410506 ]
  - [   0.0042708357796073, -0.0019914482254535, -0.0033070198260248 ]
  - [   0.0045657032169402, -0.0022702463902533, -0.0033214809373021 ]
  - [   0.0045711249113083, -0.0025058693718165, -0.0033214974682778 ]
  - [   0.0043709306046367, -0.0023885376285762, -0.0033245210070163 ]
  - [   0.0042737685143948, -0.0019926591776311, -0.0033332540187985 ]
  - [   0.0045685828663409, -0.0022680817637593, -0.0033252048306167 ]
  - [   0.0045674033463001, -0.0025072102434933, -0.0033264118246734 ]
  - [   0.0043706544674933, -0.0023885346017778, -0.0033224178478122 ]
  - [  -0.0100150667130947,  0.0029726689681411,  0.0031914114952087 ]
  - [  -0.0098102893680334,  0.0028579682111740,  0.0031124479137361 ]
  - [  -0.0098180547356606,  0.0030850053299218,  0.0030215461738408 ]
  - [  -0.0097099347040057,  0.0026728932280093,  0.0031066806986928 ]
  - [  -0.0100161265581846,  0.0029739523306489,  0.0030332915484905 ]
  - [  -0.0098143620416522,  0.0028581093065441,  0.0031174079049379 ]
  - [  -0.0098192114382982,  0.0030796981882304,  0.0032100756652653 ]
  - [  -0.0097074378281832,  0.0026732624974102,  0.0031229031737894 ]
- atom:    1
  displacement:
    [   0.0049811611345489, -0.0086711033756760,  0.0000000000000000 ]
  forces:
  - [  -0.0211870595812798,  0.0184246860444546,  0.0030272663570940 ]
  - [  -0.0113528463989496,  0.0042873113416135,  0.0030201287008822 ]
  - [  -0.0113546028733253,  0.0015710515435785,  0.0030198048334569 ]
  - [  -0.0136659257113934,  0.0028958774637431,  0.0030206283554435 ]
  - [  -0.0123609704896808,  0.0033468503970653,  0.0030160960741341 ]
  - [  -0.0123611316084862,  0.0033356526400894,  0.0030202150810510 ]
  - [  -0.0123596321791410,  0.0033419006504118,  0.0030184849165380 ]
  - [  -0.0123556470498443,  0.0033395290374756,  0.0030187582597136 ]
  - [   0.0018243642989546, -0.0004647853784263, -0.0000621900981059 ]
  - [   0.0061861183494329, -0.0028753345832229, -0.0000633190502413 ]
  - [   0.0033768313005567, -0.0030489203054458, -0.0000617265322944 ]
  - [   0.0019015552243218, -0.0047766207717359, -0.0000605898530921 ]
  - [   0.0024318222422153, -0.0013801173772663, -0.0000619712736807 ]
  - [   0.0024310383014381, -0.0013799235457554, -0.0000607649853919 ]
  - [   0.0024288254790008, -0.0013817404396832, -0.0000628324050922 ]
  - [   0.0024335114285350, -0.0013811872340739, -0.0000611042996752 ]
  - [   0.0091044344007969, -0.0003908766666427,  0.0001937988854479 ]
  - [   0.0093010263517499, -0.0005062246927992,  0.0002220883034170 ]
  - [   0.0089971693232656, -0.0002102253492922,  0.0001977196079679 ]
  - [   0.0091045657172799, -0.0006212977459654,  0.0000892180978553 ]
  - [   0.0091045536100864, -0.0003910618834198,  0.0002163072058465 ]
  - [   0.0092988451942801, -0.0005066641606390,  0.0001870277628768 ]
  - [   0.0089972009882331, -0.0002095197560266,  0.0002132800582331 ]
  - [   0.0091049149632454, -0.0006265849806368,  0.0003242432139814 ]
  - [   0.0093738473951817, -0.0033223028294742, -0.0029606679454446 ]
  - [   0.0056315087713301, -0.0011159575078636, -0.0029546436853707 ]
  - [   0.0056044943630695, -0.0058520492166281, -0.0029463237151504 ]
  - [   0.0071962224319577, -0.0037539834156632, -0.0029546101577580 ]
  - [   0.0061732064932585, -0.0020923418924212, -0.0029532844200730 ]
  - [   0.0061722327955067, -0.0020947288721800, -0.0029538404196501 ]
  - [   0.0061740102246404, -0.0020911125466228, -0.0029534096829593 ]
  - [   0.0061692334711552, -0.0020909658633173, -0.0029536667279899 ]
  - [   0.0046640080399811, -0.0026699085719883, -0.0034095712471753 ]
  - [   0.0043667424470186, -0.0023908412549645, -0.0033261454664171 ]
  - [   0.0043674875050783, -0.0021510242950171, -0.0033283203374594 ]
  - [   0.0045670801773667, -0.0022692820057273, -0.0033224851358682 ]
  - [   0.0046636727638543, -0.0026646822225302, -0.0032481495290995 ]
  - [   0.0043690525926650, -0.0023891027085483, -0.0033209000248462 ]
  - [   0.0043637668713927, -0.0021520967129618, -0.0033183097839355 ]
  - [   0.0045664235949516, -0.0022690335754305, -0.0033249910920858 ]
  - [  -0.0095050204545259,  0.0025431066751480,  0.0030104550532997 ]
  - [  -0.0097100976854563,  0.0026578181423247,  0.0031115999445319 ]
  - [  -0.0097006941214204,  0.0024380388204008,  0.0031809022184461 ]
  - [  -0.0098113156855106,  0.0028480454348028,  0.0031212966423482 ]
  - [  -0.0095020355656743,  0.0025429492816329,  0.0032239314168692 ]
  - [  -0.0097139365971088,  0.0026583366561681,  0.0031166076660156 ]
  - [  -0.0097004473209381,  0.0024406760931015,  0.0030453014187515 ]
  - [  -0.0098084062337875,  0.0028486696537584,  0.0031086476519704 ]
- atom:    1
  displacement:
    [  -0.0000020156481168,  0.0000075142429234,  0.0099999969736653 ]
  forces:
  - [  -0.0123399831354618,  0.0033158399164677, -0.0242956951260567 ]
  - [  -0.0123576205223799,  0.0033389804884791,  0.0031131007708609 ]
  - [  -0.0123609397560358,  0.0033394738566130,  0.0031133617740124 ]
  - [  -0.0123586403205991,  0.0033383746631444,  0.0031128623522818 ]
  - [  -0.0123587884008884,  0.0033413099590689,  0.0074177403002977 ]
  - [  -0.0123595464974642,  0.0033363737165928,  0.0029472047463059 ]
  - [  -0.0123582324013114,  0.0033398244995624,  0.0029461630620062 ]
  - [  -0.0123560028150678,  0.0033395534846932,  0.0029466459527612 ]
  - [   0.0024514934048057, -0.0013683445286006,  0.0004498925409280 ]
  - [   0.0024076360277832, -0.0013664613943547,  0.0004377505974844 ]
  - [   0.0024292613379657, -0.0013817695435137, -0.0000710194290150 ]
  - [   0.0024343095719814, -0.0013995319604874,  0.0004498980706558 ]
  - [   0.0024289933498949, -0.0013805383350700, -0.0003035996342078 ]
  - [   0.0024343938566744, -0.0013813002733514, -0.0002994966343977 ]
  - [   0.0024293202441186, -0.0013824992347509, -0.0000917162979022 ]
  - [   0.0024331831373274, -0.0013801378663629, -0.0003026280028280 ]
  - [   0.0089369565248489, -0.0003448887728155,  0.0005098374094814 ]
  - [   0.0090913129970431, -0.0003217364428565,  0.0005124089657329 ]
  - [   0.0090360539034009, -0.0002909654285759,  0.0002048808382824 ]
  - [   0.0090334303677082, -0.0001844733487815,  0.0005109757767059 ]
  - [   0.0091430908069015, -0.0002498010871932,  0.0005031860200688 ]
  - [   0.0090051023289561, -0.0002675788709894,  0.0005146850598976 ]
  - [   0.0090555762872100, -0.0003037843853235,  0.0002058622485492 ]
  - [   0.0090592643246055, -0.0004021357744932,  0.0005125877214596 ]
  - [   0.0061904187314212, -0.0021053613163531, -0.0024449757765979 ]
  - [   0.0061530708335340, -0.0021050248760730, -0.0024475404061377 ]
  - [   0.0061743194237351, -0.0020635267719626, -0.0024444279260933 ]
  - [   0.0061724642291665, -0.0020913220942020, -0.0029634952079505 ]
  - [   0.0061724041588604, -0.0020923041738570, -0.0031960322521627 ]
  - [   0.0061733829788864, -0.0020921491086483, -0.0031928136013448 ]
  - [   0.0061724679544568, -0.0020952783524990, -0.0031939228065312 ]
  - [   0.0061711175367236, -0.0020920727401972, -0.0029829877894372 ]
  - [   0.0044045858085155, -0.0023097048979253,  0.0057316352613270 ]
  - [   0.0044654635712504, -0.0023307113442570, -0.0033220858313143 ]
  - [   0.0044687865301967, -0.0023275646381080, -0.0033218516036868 ]
  - [   0.0044692056253552, -0.0023284922353923, -0.0033219493925571 ]
  - [   0.0045250123366714, -0.0023388133849949,  0.0052701896056533 ]
  - [   0.0044698757119477, -0.0023284398484975, -0.0033247522078454 ]
  - [   0.0044669704511762, -0.0023311199620366, -0.0033253103028983 ]
  - [   0.0044677690602839, -0.0023290880490094, -0.0033255687449127 ]
  - [  -0.0097895003855228,  0.0027775401249528,  0.0034214188344777 ]
  - [  -0.0096366805955768,  0.0028226114809513,  0.0034235515631735 ]
  - [  -0.0097516076639295,  0.0026409639976919,  0.0034257532097399 ]
  - [  -0.0097536379471421,  0.0027563157491386,  0.0031138192862272 ]
  - [  -0.0097376601770520,  0.0027450649067760,  0.0034216740168631 ]
  - [  -0.0098759680986404,  0.0027016703970730,  0.0034221778623760 ]
  - [  -0.0097675137221813,  0.0028680774848908,  0.0034170160070062 ]
  - [  -0.0097643677145243,  0.0027649425901473,  0.0031155932229012 ]
- atom:    1
  displacement:
    [   0.0000020156481168, -0.0000075142429234, -0.0099999969736653 ]
  forces:
  - [  -0.0123488828539848,  0.0033524327445775,  0.0303409975022078 ]
  - [  -0.0123569965362549,  0.0033408156596124,  0.0029262255411595 ]
  - [  -0.0123594794422388,  0.0033368072472513,  0.0029264930635691 ]
  - [  -0.0123601369559765,  0.0033369138836861,  0.0029288348741829 ]
  - [  -0.0123570840805769,  0.0033356156200171, -0.0013809746596962 ]
  - [  -0.0123592196032405,  0.0033367443829775,  0.0030927751213312 ]
  - [  -0.0123576140031219,  0.0033379825763404,  0.0030921394936740 ]
  - [  -0.0123569183051586,  0.0033386282157153,  0.0030911506619304 ]
  - [   0.0024640792980790, -0.0013602853287011, -0.0005736302118748 ]
  - [   0.0023961463011801, -0.0013590735616162, -0.0005632489919662 ]
  - [   0.0024297861382365, -0.0013836815487593, -0.0000530044344487 ]
  - [   0.0024339032825083, -0.0014226920902729, -0.0005733729922213 ]
  - [   0.0024297996424139, -0.0013790010707453,  0.0001784123887774 ]
  - [   0.0024325451813638, -0.0013792794197798,  0.0001764927874319 ]
  - [   0.0024298024363816, -0.0013830824755132, -0.0000325516666635 ]
  - [   0.0024329121224582, -0.0013793446123600,  0.0001787472283468 ]
  - [   0.0091481572017074, -0.0002478569513187, -0.0000936674332479 ]
  - [   0.0090013211593032, -0.0002647929359227, -0.0001062398951035 ]
  - [   0.0090551264584064, -0.0003036811249331,  0.0002047295856755 ]
  - [   0.0090588144958019, -0.0004035989986733, -0.0000961243640631 ]
  - [   0.0089424643665552, -0.0003427830524743, -0.0000975003131316 ]
  - [   0.0090855350717902, -0.0003206853289157, -0.0001010443811538 ]
  - [   0.0090360846370459, -0.0002902594860643,  0.0002063305437332 ]
  - [   0.0090340096503496, -0.0001898655900732, -0.0001040549832396 ]
  - [   0.0062062898650765, -0.0021135793067515, -0.0034625986590981 ]
  - [   0.0061376974917948, -0.0021130158565938, -0.0034604063257575 ]
  - [   0.0061743496917188, -0.0020536868833005, -0.0034638806246221 ]
  - [   0.0061734216287732, -0.0020935593638569, -0.0029458608478308 ]
  - [   0.0061722896061838, -0.0020910925231874, -0.0027125603519380 ]
  - [   0.0061726383864880, -0.0020915910135955, -0.0027163331396878 ]
  - [   0.0061724958941340, -0.0020927879959345, -0.0027148192748427 ]
  - [   0.0061714509502053, -0.0020927619189024, -0.0029236283153296 ]
  - [   0.0045252274721861, -0.0023496556095779, -0.0117041617631912 ]
  - [   0.0044668670743704, -0.0023302175104618, -0.0033224802464247 ]