phonopy:
  version: "2.37.1"
  frequency_unit_conversion_factor: 15.633302
  symmetry_tolerance: 1.00000e-05

space_group:
  type: "P6/mmm"
  number: 191
  Hall_symbol: "-P 6 2"

primitive_matrix:
- [  1.000000000000000,  0.000000000000000,  0.000000000000000 ]
- [  0.000000000000000,  1.000000000000000,  0.000000000000000 ]
- [  0.000000000000000,  0.000000000000000,  1.000000000000000 ]

supercell_matrix:
- [   2,   0,   0 ]
- [   0,   2,   0 ]
- [   0,   0,   4 ]

primitive_cell:
  lattice:
  - [     5.258157822298466,     0.000000000000000,     0.000000000000000 ] # a
  - [    -2.629078981472110,     4.553698161106102,     0.000000000000000 ] # b
  - [    -0.000000012736457,     0.000000064108503,     3.138645183655187 ] # c
  points:
  - symbol: Li # 1
    coordinates: [  0.999999997874958,  0.999999996430735,  0.000000001315021 ]
    mass: 6.940000
  - symbol: Sn # 2
    coordinates: [  0.666666668494768,  0.333333335979525,  0.500000001837020 ]
    mass: 118.710000
  - symbol: Sn # 3
    coordinates: [  0.333333333567037,  0.666666667575985,  0.499999996830554 ]
    mass: 118.710000
  reciprocal_lattice: # without 2pi
  - [     0.190180674258057,     0.109800868587346,    -0.000000001470998 ] # a*
  - [     0.000000000000000,     0.219601731300763,    -0.000000004485483 ] # b*
  - [     0.000000000000000,     0.000000000000000,     0.318608807777190 ] # c*

unit_cell:
  lattice:
  - [     5.258157822298467,     0.000000000000000,     0.000000000000000 ] # a
  - [    -2.629078981472111,     4.553698161106102,     0.000000000000000 ] # b
  - [    -0.000000012736457,     0.000000064108503,     3.138645183655187 ] # c
  points:
  - symbol: Li # 1
    coordinates: [  0.999999997874958,  0.999999996430735,  0.000000001315021 ]
    mass: 6.940000
    reduced_to: 1
  - symbol: Sn # 2
    coordinates: [  0.666666668494768,  0.333333335979525,  0.500000001837020 ]
    mass: 118.710000
    reduced_to: 2
  - symbol: Sn # 3
    coordinates: [  0.333333333567037,  0.666666667575985,  0.499999996830554 ]
    mass: 118.710000
    reduced_to: 3

supercell:
  lattice:
  - [    10.516315644596935,     0.000000000000000,     0.000000000000000 ] # a
  - [    -5.258157962944222,     9.107396322212203,     0.000000000000000 ] # b
  - [    -0.000000050945829,     0.000000256434011,    12.554580734620748 ] # c
  points:
  - symbol: Li # 1
    coordinates: [  0.499999998937479,  0.499999998215368,  0.000000000328755 ]
    mass: 6.940000
    reduced_to: 1
  - symbol: Li # 2
    coordinates: [  0.999999998937479,  0.499999998215368,  0.000000000328755 ]
    mass: 6.940000
    reduced_to: 1
  - symbol: Li # 3
    coordinates: [  0.499999998937479,  0.999999998215368,  0.000000000328755 ]
    mass: 6.940000
    reduced_to: 1
  - symbol: Li # 4
    coordinates: [  0.999999998937479,  0.999999998215368,  0.000000000328755 ]
    mass: 6.940000
    reduced_to: 1
  - symbol: Li # 5
    coordinates: [  0.499999998937479,  0.499999998215368,  0.250000000328755 ]
    mass: 6.940000
    reduced_to: 1
  - symbol: Li # 6
    coordinates: [  0.999999998937479,  0.499999998215368,  0.250000000328755 ]
    mass: 6.940000
    reduced_to: 1
  - symbol: Li # 7
    coordinates: [  0.499999998937479,  0.999999998215368,  0.250000000328755 ]
    mass: 6.940000
    reduced_to: 1
  - symbol: Li # 8
    coordinates: [  0.999999998937479,  0.999999998215368,  0.250000000328755 ]
    mass: 6.940000
    reduced_to: 1
  - symbol: Li # 9
    coordinates: [  0.499999998937479,  0.499999998215368,  0.500000000328755 ]
    mass: 6.940000
    reduced_to: 1
  - symbol: Li # 10
    coordinates: [  0.999999998937479,  0.499999998215368,  0.500000000328755 ]
    mass: 6.940000
    reduced_to: 1
  - symbol: Li # 11
    coordinates: [  0.499999998937479,  0.999999998215368,  0.500000000328755 ]
    mass: 6.940000
    reduced_to: 1
  - symbol: Li # 12
    coordinates: [  0.999999998937479,  0.999999998215368,  0.500000000328755 ]
    mass: 6.940000
    reduced_to: 1
  - symbol: Li # 13
    coordinates: [  0.499999998937479,  0.499999998215368,  0.750000000328755 ]
    mass: 6.940000
    reduced_to: 1
  - symbol: Li # 14
    coordinates: [  0.999999998937479,  0.499999998215368,  0.750000000328755 ]
    mass: 6.940000
    reduced_to: 1
  - symbol: Li # 15
    coordinates: [  0.499999998937479,  0.999999998215368,  0.750000000328755 ]
    mass: 6.940000
    reduced_to: 1
  - symbol: Li # 16
    coordinates: [  0.999999998937479,  0.999999998215368,  0.750000000328755 ]
    mass: 6.940000
    reduced_to: 1
  - symbol: Sn # 17
    coordinates: [  0.333333334247384,  0.166666667989762,  0.125000000459255 ]
    mass: 118.710000
    reduced_to: 17
  - symbol: Sn # 18
    coordinates: [  0.833333334247384,  0.166666667989762,  0.125000000459255 ]
    mass: 118.710000
    reduced_to: 17
  - symbol: Sn # 19
    coordinates: [  0.333333334247384,  0.666666667989762,  0.125000000459255 ]
    mass: 118.710000
    reduced_to: 17
  - symbol: Sn # 20
    coordinates: [  0.833333334247384,  0.666666667989762,  0.125000000459255 ]
    mass: 118.710000
    reduced_to: 17
  - symbol: Sn # 21
    coordinates: [  0.333333334247384,  0.166666667989762,  0.375000000459255 ]
    mass: 118.710000
    reduced_to: 17
  - symbol: Sn # 22
    coordinates: [  0.833333334247384,  0.166666667989762,  0.375000000459255 ]
    mass: 118.710000
    reduced_to: 17
  - symbol: Sn # 23
    coordinates: [  0.333333334247384,  0.666666667989762,  0.375000000459255 ]
    mass: 118.710000
    reduced_to: 17
  - symbol: Sn # 24
    coordinates: [  0.833333334247384,  0.666666667989762,  0.375000000459255 ]
    mass: 118.710000
    reduced_to: 17
  - symbol: Sn # 25
    coordinates: [  0.333333334247384,  0.166666667989762,  0.625000000459255 ]
    mass: 118.710000
    reduced_to: 17
  - symbol: Sn # 26
    coordinates: [  0.833333334247384,  0.166666667989762,  0.625000000459255 ]
    mass: 118.710000
    reduced_to: 17
  - symbol: Sn # 27
    coordinates: [  0.333333334247384,  0.666666667989762,  0.625000000459255 ]
    mass: 118.710000
    reduced_to: 17
  - symbol: Sn # 28
    coordinates: [  0.833333334247384,  0.666666667989762,  0.625000000459255 ]
    mass: 118.710000
    reduced_to: 17
  - symbol: Sn # 29
    coordinates: [  0.333333334247384,  0.166666667989762,  0.875000000459255 ]
    mass: 118.710000
    reduced_to: 17
  - symbol: Sn # 30
    coordinates: [  0.833333334247384,  0.166666667989762,  0.875000000459255 ]
    mass: 118.710000
    reduced_to: 17
  - symbol: Sn # 31
    coordinates: [  0.333333334247384,  0.666666667989762,  0.875000000459255 ]
    mass: 118.710000
    reduced_to: 17
  - symbol: Sn # 32
    coordinates: [  0.833333334247384,  0.666666667989762,  0.875000000459255 ]
    mass: 118.710000
    reduced_to: 17
  - symbol: Sn # 33
    coordinates: [  0.166666666783518,  0.333333333787992,  0.124999999207639 ]
    mass: 118.710000
    reduced_to: 33
  - symbol: Sn # 34
    coordinates: [  0.666666666783518,  0.333333333787992,  0.124999999207639 ]
    mass: 118.710000
    reduced_to: 33
  - symbol: Sn # 35
    coordinates: [  0.166666666783518,  0.833333333787992,  0.124999999207639 ]
    mass: 118.710000
    reduced_to: 33
  - symbol: Sn # 36
    coordinates: [  0.666666666783518,  0.833333333787992,  0.124999999207639 ]
    mass: 118.710000
    reduced_to: 33
  - symbol: Sn # 37
    coordinates: [  0.166666666783518,  0.333333333787992,  0.374999999207639 ]
    mass: 118.710000
    reduced_to: 33
  - symbol: Sn # 38
    coordinates: [  0.666666666783518,  0.333333333787992,  0.374999999207639 ]
    mass: 118.710000
    reduced_to: 33
  - symbol: Sn # 39
    coordinates: [  0.166666666783518,  0.833333333787992,  0.374999999207639 ]
    mass: 118.710000
    reduced_to: 33
  - symbol: Sn # 40
    coordinates: [  0.666666666783518,  0.833333333787992,  0.374999999207639 ]
    mass: 118.710000
    reduced_to: 33
  - symbol: Sn # 41
    coordinates: [  0.166666666783518,  0.333333333787992,  0.624999999207639 ]
    mass: 118.710000
    reduced_to: 33
  - symbol: Sn # 42
    coordinates: [  0.666666666783518,  0.333333333787992,  0.624999999207639 ]
    mass: 118.710000
    reduced_to: 33
  - symbol: Sn # 43
    coordinates: [  0.166666666783518,  0.833333333787992,  0.624999999207639 ]
    mass: 118.710000
    reduced_to: 33
  - symbol: Sn # 44
    coordinates: [  0.666666666783518,  0.833333333787992,  0.624999999207639 ]
    mass: 118.710000
    reduced_to: 33
  - symbol: Sn # 45
    coordinates: [  0.166666666783518,  0.333333333787992,  0.874999999207639 ]
    mass: 118.710000
    reduced_to: 33
  - symbol: Sn # 46
    coordinates: [  0.666666666783518,  0.333333333787992,  0.874999999207639 ]
    mass: 118.710000
    reduced_to: 33
  - symbol: Sn # 47
    coordinates: [  0.166666666783518,  0.833333333787992,  0.874999999207639 ]
    mass: 118.710000
    reduced_to: 33
  - symbol: Sn # 48
    coordinates: [  0.666666666783518,  0.833333333787992,  0.874999999207639 ]
    mass: 118.710000
    reduced_to: 33

displacements:
- atom:    1
  displacement:
    [   0.0064213421486201,  0.0000000001565806,  0.0076659223196139 ]
  forces:
  - [  -0.0050886692479253,  0.0000001676380634, -0.0095869703218341 ]
  - [  -0.0002449566673022, -0.0000003874301910,  0.0000760746188462 ]
  - [  -0.0000046286731958,  0.0001388955861330,  0.0000763628631830 ]
  - [  -0.0000046053901315, -0.0001387624070048,  0.0000765952281654 ]
  - [  -0.0000181708383025,  0.0000001396983862,  0.0028350600041449 ]
  - [  -0.0003010364307556, -0.0000001098960638, -0.0000766692683101 ]
  - [  -0.0000641755759716,  0.0001365812495351, -0.0000761765986681 ]
  - [  -0.0000641392543912, -0.0001371176913381, -0.0000763060525060 ]
  - [  -0.0000682769095874,  0.0000000372529030, -0.0001648459583521 ]
  - [   0.0000398565534852, -0.0000001210719347, -0.0000000707805157 ]
  - [  -0.0000001192092896, -0.0000230185687542, -0.0000001844018698 ]
  - [  -0.0000002896413207,  0.0000226208940148, -0.0000004325993359 ]
  - [  -0.0000114602262329,  0.0000000614672899,  0.0027928473427892 ]
  - [  -0.0003000504220836, -0.0000003650784492, -0.0000781863927841 ]
  - [  -0.0000632796436548,  0.0001370944082737, -0.0000786865130067 ]
  - [  -0.0000632004812360, -0.0001370338723063, -0.0000785370357335 ]
  - [  -0.0001235899107996, -0.0003622091026045,  0.0005104930023663 ]
  - [   0.0001652069040574,  0.0000020670122467, -0.0001188888563775 ]
  - [   0.0004626573063433, -0.0003378632536624, -0.0001202496350743 ]
  - [   0.0011027497239411,  0.0007087354315445,  0.0011534516233951 ]
  - [   0.0000075228131209,  0.0000160206109285, -0.0001201109262183 ]
  - [  -0.0000024605542421, -0.0000001525040716,  0.0000344529398717 ]
  - [  -0.0000022915774025,  0.0000049092341214, -0.0000402844743803 ]
  - [  -0.0000303137931041, -0.0000221686495934, -0.0002001473330893 ]
  - [   0.0000078090215538, -0.0000171685132955, -0.0001220132689923 ]
  - [  -0.0000026932684705, -0.0000007231481050,  0.0000303214765154 ]
  - [  -0.0000306824222207,  0.0000212654704228, -0.0002018336672336 ]
  - [  -0.0000025022309273, -0.0000065181811806, -0.0000436755944975 ]
  - [  -0.0001196282610181,  0.0003751516342163,  0.0005171883385628 ]
  - [   0.0001652832143009,  0.0000014435499907, -0.0001234980300069 ]
  - [   0.0010845959186554, -0.0006953217089176,  0.0011377059854567 ]
  - [   0.0004463866353035,  0.0003270953893661, -0.0001126006827690 ]
  - [   0.0004626298905350,  0.0003378594992682, -0.0001197131350636 ]
  - [   0.0011033774353564, -0.0007085916004144,  0.0011526383459568 ]
  - [   0.0001653149374761, -0.0000016073472580, -0.0001184055581689 ]
  - [  -0.0001233786024386,  0.0003619573544711,  0.0005110502243042 ]
  - [  -0.0000020036695787, -0.0000049798109103, -0.0000409842468798 ]
  - [  -0.0000303260749206,  0.0000222093694902, -0.0001998161897063 ]
  - [  -0.0000023540342227,  0.0000004890534910,  0.0000337669625878 ]
  - [   0.0000074630224844, -0.0000157989925356, -0.0001202905550599 ]
  - [  -0.0000310221657855, -0.0000211690403376, -0.0002014389028773 ]
  - [  -0.0000022986787371,  0.0000061332957557, -0.0000427336781286 ]
  - [  -0.0000026859488571,  0.0000010667135939,  0.0000302679836750 ]
  - [   0.0000075087300502,  0.0000176432367880, -0.0001220777630806 ]
  - [   0.0010849251411855,  0.0006954740383662,  0.0011370225111023 ]
  - [   0.0004461526405066, -0.0003269998414908, -0.0001130499877036 ]
  - [   0.0001653821673244, -0.0000011383352785, -0.0001236619427800 ]
  - [  -0.0001195296208607, -0.0003758329548873,  0.0005172742530704 ]
- atom:   17
  displacement:
    [   0.0064213421486201,  0.0000000001565806,  0.0076659223196139 ]
  forces:
  - [  -0.0001182865235023, -0.0008647330105305,  0.0005154106765985 ]
  - [   0.0001669431512710, -0.0000022929161787, -0.0001177941448987 ]
  - [   0.0000239564105868, -0.0000844644382596,  0.0002453550696373 ]
  - [   0.0015102233737707,  0.0009378679096699,  0.0007781409658492 ]
  - [  -0.0001253035443369,  0.0008743964135647,  0.0005121687427163 ]
  - [   0.0001635683438508, -0.0000022035092115, -0.0001250794157386 ]
  - [   0.0015441821888089, -0.0009665535762906,  0.0007858965545893 ]
  - [   0.0000181300565600,  0.0000803843140602,  0.0002465918660164 ]
  - [   0.0000071548220149, -0.0001088771969080, -0.0001203678548336 ]
  - [  -0.0000021640462364, -0.0000000279396772,  0.0000333506613970 ]
  - [  -0.0001109708100557,  0.0000675339251757, -0.0001318524591625 ]
  - [   0.0000778557732701,  0.0000405628234148, -0.0001094387844205 ]
  - [   0.0000079671372077,  0.0001099295914173, -0.0001215380616486 ]
  - [  -0.0000028290396585, -0.0000000577419996,  0.0000314274802804 ]
  - [   0.0000788550823927, -0.0000411393120885, -0.0001089433208108 ]
  - [  -0.0001120064407587, -0.0000693043693900, -0.0001339558511972 ]
  - [  -0.0201098117977381, -0.0001000215415843, -0.0188942067325115 ]
  - [   0.0003224971587770,  0.0000032385578379,  0.0000148623948917 ]
  - [  -0.0003729482414201, -0.0004017778264824,  0.0000149747938849 ]
  - [  -0.0003726938157342,  0.0004009326512460,  0.0000156578607857 ]
  - [  -0.0002165483310819, -0.0000003665918484,  0.0059989173896611 ]
  - [  -0.0000794163206592,  0.0000403969897889,  0.0000518978922628 ]
  - [  -0.0000389927881770,  0.0000240516383201,  0.0000831866636872 ]
  - [   0.0000332038616762, -0.0000644527026452,  0.0000206290860660 ]
  - [   0.0000904619810171, -0.0000004868495580,  0.0029534301720560 ]
  - [  -0.0000293638440780, -0.0000005971867267, -0.0000487931538373 ]
  - [   0.0000001874868758,  0.0000160300987773, -0.0000489440280944 ]
  - [  -0.0000002208398655, -0.0000178810732905, -0.0000490344827995 ]
  - [  -0.0001836412120610, -0.0000011809170246,  0.0057071996852756 ]
  - [  -0.0000806817552075, -0.0000464003533125,  0.0000531073892489 ]
  - [   0.0000357180833817,  0.0000674575567245,  0.0000208643032238 ]
  - [  -0.0000417232513428, -0.0000224150717258,  0.0000843752059154 ]
  - [   0.0082004107534885, -0.0048290463164449, -0.0007076109759510 ]
  - [   0.0083614075556397,  0.0049422322772443, -0.0007662521675229 ]
  - [  -0.0001808704691939,  0.0000089346885943, -0.0007361867465079 ]
  - [  -0.0000883168104338,  0.0000008265012639, -0.0001343414187431 ]
  - [  -0.0003490630188026,  0.0000924035557546,  0.0001652780920267 ]
  - [   0.0011699814349413,  0.0007864879444242,  0.0014463867992163 ]
  - [  -0.0001902478252305, -0.0008773265290074,  0.0008022654801607 ]
  - [   0.0001791988179320,  0.0000007864800864,  0.0001042373478413 ]
  - [  -0.0000019830631572,  0.0000153345481522, -0.0002748344559222 ]
  - [   0.0000017540296540, -0.0000113665028039, -0.0002713010762818 ]
  - [   0.0000227402197197, -0.0000012562450138, -0.0002730265259743 ]
  - [  -0.0000227401324082,  0.0000006889313227, -0.0000278465449810 ]
  - [   0.0011783167719841, -0.0007875592564233,  0.0014406999107450 ]
  - [  -0.0003564417711459, -0.0000967170853983,  0.0001642578281462 ]
  - [  -0.0001873141300166,  0.0008867066935636,  0.0008057574741542 ]
  - [   0.0001798550219974,  0.0000012696001477,  0.0001050238497555 ]

force_constants:
  format: "full"
  shape: [ 48, 48 ]
  elements:
  - # (1, 1)
    - [     0.792453370577811,     0.000000000222181,    -0.000000001030678 ]
    - [     0.000000000222181,     0.792453370880707,     0.000000004362618 ]
    - [    -0.000000001030678,     0.000000004362618,     1.250592108067870 ]
  - # (1, 2)
    - [     0.038144888165491,     0.000000000089565,    -0.000000000170808 ]
    - [     0.000000001110558,    -0.011771831909851,     0.000000000082573 ]
    - [     0.000000000517799,    -0.000000000016920,    -0.009962611425937 ]
  - # (1, 3)
    - [     0.000707348527627,    -0.021614573600317,    -0.000000000048242 ]
    - [    -0.021614574742078,     0.025665708626577,    -0.000000000522803 ]
    - [     0.000000000235608,    -0.000000000828269,    -0.009962611407235 ]
  - # (1, 4)
    - [     0.000707347678972,     0.021614573884584,    -0.000000000275296 ]
    - [     0.021614574374119,     0.025665709177961,    -0.000000000593887 ]
    - [    -0.000000000208181,    -0.000000000637592,    -0.009962611246823 ]
  - # (1, 5)
    - [     0.002298660759246,     0.000000000258675,     0.000000000648327 ]
    - [     0.000000000184487,     0.002298661262259,    -0.000000004088592 ]
    - [     0.000000000862802,    -0.000000004001800,    -0.367076774886894 ]
  - # (1, 6)
    - [     0.046814544909544,     0.000000000236468,     0.000000000044545 ]
    - [     0.000000001193506,    -0.002402666340021,    -0.000000000080295 ]
    - [     0.000000000415353,     0.000000000107533,     0.010096451040606 ]
  - # (1, 7)
    - [     0.009901636702875,    -0.021311677242081,     0.000000000124382 ]
    - [    -0.021311678493793,     0.034510242739063,    -0.000000000474840 ]
    - [     0.000000000268029,    -0.000000000968896,     0.010096451021904 ]
  - # (1, 8)
    - [     0.009901635976322,     0.021311677551880,    -0.000000000294247 ]
    - [     0.021311678289510,     0.034510243047629,    -0.000000000479970 ]
    - [    -0.000000000227132,    -0.000000000523675,     0.010096450861492 ]
  - # (1, 9)
    - [     0.010624239524876,     0.000000000222181,    -0.000000000123193 ]
    - [     0.000000000222181,     0.010624239827772,    -0.000000000205174 ]
    - [    -0.000000000123193,    -0.000000000205174,     0.021500033996800 ]
  - # (1, 10)
    - [    -0.006187632538302,    -0.000000000080639,    -0.000000000162278 ]
    - [    -0.000000000232022,     0.002075013600220,    -0.000000000092296 ]
    - [    -0.000000000119441,    -0.000000000244112,     0.000026205850413 ]
  - # (1, 11)
    - [     0.000009352011064,     0.003577830658465,    -0.000000000228730 ]
    - [     0.003577830689081,    -0.004121970999439,    -0.000000000098915 ]
    - [    -0.000000000134616,    -0.000000000022788,     0.000026205869115 ]
  - # (1, 12)
    - [     0.000009351849559,    -0.003577830557088,    -0.000000000039695 ]
    - [    -0.003577830067553,    -0.004121970660777,    -0.000000000238773 ]
    - [     0.000000000027420,    -0.000000000282478,     0.000026206029527 ]
  - # (1, 13)
    - [     0.002298660759246,     0.000000000258675,     0.000000000648327 ]
    - [     0.000000000184487,     0.002298661262259,    -0.000000004088592 ]
    - [     0.000000000862802,    -0.000000004001800,    -0.367076774886894 ]
  - # (1, 14)
    - [     0.046814544909544,     0.000000000236468,     0.000000000044545 ]
    - [     0.000000001193506,    -0.002402666340021,    -0.000000000080295 ]
    - [     0.000000000415353,     0.000000000107533,     0.010096451040606 ]
  - # (1, 15)
    - [     0.009901636702875,    -0.021311677242081,     0.000000000124382 ]
    - [    -0.021311678493793,     0.034510242739063,    -0.000000000474840 ]
    - [     0.000000000268029,    -0.000000000968896,     0.010096451021904 ]
  - # (1, 16)
    - [     0.009901635976322,     0.021311677551880,    -0.000000000294247 ]
    - [     0.021311678289510,     0.034510243047629,    -0.000000000479970 ]
    - [    -0.000000000227132,    -0.000000000523675,     0.010096450861492 ]
  - # (1, 17)
    - [     0.018951737243826,     0.000000002223913,    -0.000000000578329 ]
    - [     0.000000001563677,    -0.167070882860683,     0.113435523968663 ]
    - [    -0.000000000083492,     0.048173617252011,    -0.067063598489636 ]
  - # (1, 18)
    - [    -0.025740743093881,     0.000000000304554,     0.000000000128147 ]
    - [     0.000000000357211,    -0.025740745631974,    -0.000000000038762 ]
    - [     0.000000000679012,     0.000000001277920,     0.015819141013003 ]
  - # (1, 19)
    - [    -0.120565231584344,     0.080550159198403,     0.098238044194760 ]
    - [     0.080550160145251,    -0.027553916331274,    -0.056717761693967 ]
    - [     0.041719575850082,    -0.024086808887808,    -0.067063595729611 ]
  - # (1, 20)
    - [    -0.120565229222641,    -0.080550161575127,    -0.098238044742392 ]
    - [    -0.080550163881357,    -0.027553920523750,    -0.056717763928681 ]
    - [    -0.041719576537027,    -0.024086809915711,    -0.067063596696277 ]
  - # (1, 21)
    - [    -0.001165657172440,     0.000000000440838,     0.000000000424813 ]
    - [     0.000000000649397,     0.003801314043390,    -0.014283843298666 ]
    - [    -0.000000000170596,    -0.002135939668687,     0.015802806943376 ]
  - # (1, 22)
    - [     0.000390674408465,     0.000000000631794,    -0.000000000599089 ]
    - [     0.000000000086922,     0.000390672277230,     0.000000000037913 ]
    - [    -0.000000000572730,    -0.000000000766637,    -0.004213790175671 ]
  - # (1, 23)
    - [     0.002559571705490,    -0.002150761425379,    -0.012370171375279 ]
    - [    -0.002150759961979,     0.000076085490788,     0.007141921306202 ]
    - [    -0.001849779027780,     0.001067970185786,     0.015802806225449 ]
  - # (1, 24)
    - [     0.002559570757920,     0.002150760453986,     0.012370171110375 ]
    - [     0.002150759695666,     0.000076086022033,     0.007141922151902 ]
    - [     0.001849779384099,     0.001067969942316,     0.015802806283147 ]
  - # (1, 25)
    - [    -0.001165657673589,     0.000000000842386,    -0.000000000021600 ]
    - [     0.000000000290376,     0.003801314552016,     0.014283843324086 ]
    - [     0.000000000062790,     0.002135939603340,     0.015802806316317 ]
  - # (1, 26)
    - [     0.000390673816323,     0.000000000383279,     0.000000000338271 ]
    - [     0.000000000435936,     0.000390672403065,    -0.000000000167837 ]
    - [     0.000000000621078,     0.000000000360615,    -0.004213790175671 ]
  - # (1, 27)
    - [     0.002559570390391,    -0.002150761038345,     0.012370171251106 ]
    - [    -0.002150759675542,     0.000076086668942,    -0.007141922088346 ]
    - [     0.001849779001850,    -0.001067970423981,     0.015802806596676 ]
  - # (1, 28)
    - [     0.002559570824451,     0.002150760198996,    -0.012370171117379 ]
    - [     0.002150759827436,     0.000076086610437,    -0.007141921650001 ]
    - [    -0.001849779538903,    -0.001067969891528,     0.015802806488788 ]
  - # (1, 29)
    - [     0.018951737744976,     0.000000001822365,     0.000000001063257 ]
    - [     0.000000002325030,    -0.167070885394433,    -0.113435520452794 ]
    - [     0.000000000475385,    -0.048173612030447,    -0.067063592871236 ]
  - # (1, 30)
    - [    -0.025740742501739,     0.000000000553070,    -0.000000000494976 ]
    - [     0.000000000008197,    -0.025740745757809,     0.000000000442438 ]
    - [    -0.000000000923901,    -0.000000000207941,     0.015819141013003 ]
  - # (1, 31)
    - [    -0.120565227252140,     0.080550155327189,    -0.098238044990471 ]
    - [     0.080550160386128,    -0.027553916448900,     0.056717761205818 ]
    - [    -0.041719579219084,     0.024086808764327,    -0.067063599106822 ]
  - # (1, 32)
    - [    -0.120565229637601,    -0.080550159566328,     0.098238045925240 ]
    - [    -0.080550164214292,    -0.027553920099592,     0.056717764659059 ]
    - [     0.041719579097804,     0.024086808730621,    -0.067063598538811 ]
  - # (1, 33)
    - [    -0.120565229637601,    -0.080550159566328,     0.098238045925240 ]
    - [    -0.080550164214292,    -0.027553920099592,     0.056717764659059 ]
    - [     0.041719579097804,     0.024086808730621,    -0.067063598538811 ]
  - # (1, 34)
    - [    -0.120565227252140,     0.080550155327189,    -0.098238044990471 ]
    - [     0.080550160386128,    -0.027553916448900,     0.056717761205818 ]
    - [    -0.041719579219084,     0.024086808764327,    -0.067063599106822 ]
  - # (1, 35)
    - [    -0.025740742501739,     0.000000000553070,    -0.000000000494976 ]
    - [     0.000000000008197,    -0.025740745757809,     0.000000000442438 ]
    - [    -0.000000000923901,    -0.000000000207941,     0.015819141013003 ]
  - # (1, 36)
    - [     0.018951737744976,     0.000000001822365,     0.000000001063257 ]
    - [     0.000000002325030,    -0.167070885394433,    -0.113435520452794 ]
    - [     0.000000000475385,    -0.048173612030447,    -0.067063592871236 ]
  - # (1, 37)
    - [     0.002559570824451,     0.002150760198996,    -0.012370171117379 ]
    - [     0.002150759827436,     0.000076086610437,    -0.007141921650001 ]
    - [    -0.001849779538903,    -0.001067969891528,     0.015802806488788 ]
  - # (1, 38)
    - [     0.002559570390391,    -0.002150761038345,     0.012370171251106 ]
    - [    -0.002150759675542,     0.000076086668942,    -0.007141922088346 ]
    - [     0.001849779001850,    -0.001067970423981,     0.015802806596676 ]
  - # (1, 39)
    - [     0.000390673816323,     0.000000000383279,     0.000000000338271 ]
    - [     0.000000000435936,     0.000390672403065,    -0.000000000167837 ]
    - [     0.000000000621078,     0.000000000360615,    -0.004213790175671 ]
  - # (1, 40)
    - [    -0.001165657673589,     0.000000000842386,    -0.000000000021600 ]
    - [     0.000000000290376,     0.003801314552016,     0.014283843324086 ]
    - [     0.000000000062790,     0.002135939603340,     0.015802806316317 ]
  - # (1, 41)
    - [     0.002559570757920,     0.002150760453986,     0.012370171110375 ]
    - [     0.002150759695666,     0.000076086022033,     0.007141922151902 ]
    - [     0.001849779384099,     0.001067969942316,     0.015802806283147 ]
  - # (1, 42)
    - [     0.002559571705490,    -0.002150761425379,    -0.012370171375279 ]
    - [    -0.002150759961979,     0.000076085490788,     0.007141921306202 ]
    - [    -0.001849779027780,     0.001067970185786,     0.015802806225449 ]
  - # (1, 43)
    - [     0.000390674408465,     0.000000000631794,    -0.000000000599089 ]
    - [     0.000000000086922,     0.000390672277230,     0.000000000037913 ]
    - [    -0.000000000572730,    -0.000000000766637,    -0.004213790175671 ]
  - # (1, 44)
    - [    -0.001165657172440,     0.000000000440838,     0.000000000424813 ]
    - [     0.000000000649397,     0.003801314043390,    -0.014283843298666 ]
    - [    -0.000000000170596,    -0.002135939668687,     0.015802806943376 ]
  - # (1, 45)
    - [    -0.120565229222641,    -0.080550161575127,    -0.098238044742392 ]
    - [    -0.080550163881357,    -0.027553920523750,    -0.056717763928681 ]
    - [    -0.041719576537027,    -0.024086809915711,    -0.067063596696277 ]
  - # (1, 46)
    - [    -0.120565231584344,     0.080550159198403,     0.098238044194760 ]
    - [     0.080550160145251,    -0.027553916331274,    -0.056717761693967 ]
    - [     0.041719575850082,    -0.024086808887808,    -0.067063595729611 ]
  - # (1, 47)
    - [    -0.025740743093881,     0.000000000304554,     0.000000000128147 ]
    - [     0.000000000357211,    -0.025740745631974,    -0.000000000038762 ]
    - [     0.000000000679012,     0.000000001277920,     0.015819141013003 ]
  - # (1, 48)
    - [     0.018951737243826,     0.000000002223913,    -0.000000000578329 ]
    - [     0.000000001563677,    -0.167070882860683,     0.113435523968663 ]
    - [    -0.000000000083492,     0.048173617252011,    -0.067063598489636 ]
  - # (2, 1)
    - [     0.038144888165491,     0.000000001110558,     0.000000000517799 ]
    - [     0.000000000089565,    -0.011771831909851,    -0.000000000016920 ]
    - [    -0.000000000170808,     0.000000000082573,    -0.009962611425937 ]
  - # (2, 2)
    - [     0.792453357322704,     0.000000031613202,     0.000000023275993 ]
    - [     0.000000031613202,     0.792453383661308,    -0.000000022978751 ]
    - [     0.000000023275993,    -0.000000022978751,     1.250592107886123 ]
  - # (2, 3)
    - [     0.000707348254664,     0.021614573582292,    -0.000000000706608 ]
    - [     0.021614574437164,     0.025665709997464,    -0.000000000405018 ]
    - [    -0.000000000517956,     0.000000000065980,    -0.009962611498109 ]
  - # (2, 4)
    - [     0.000707347739803,    -0.021614574731613,     0.000000000535590 ]
    - [    -0.021614573401742,     0.025665708212287,    -0.000000001165430 ]
    - [     0.000000000066018,    -0.000000000344960,    -0.009962611337697 ]
  - # (2, 5)
    - [     0.046814544694688,     0.000000001316355,     0.000000000597755 ]
    - [     0.000000000235269,    -0.002402666196784,    -0.000000000034811 ]
    - [     0.000000000259020,     0.000000000006497,     0.010096450858857 ]
  - # (2, 6)
    - [     0.002298660605747,    -0.000000000268222,    -0.000000003669151 ]
    - [    -0.000000000318080,     0.002298661012869,     0.000000001224961 ]
    - [    -0.000000003851552,     0.000000001367306,    -0.367076774886894 ]
  - # (2, 7)
    - [     0.009901636356362,     0.021311677713661,    -0.000000000414388 ]
    - [     0.021311678430390,     0.034510244164790,    -0.000000000481834 ]
    - [    -0.000000000238858,    -0.000000000353890,     0.010096450931030 ]
  - # (2, 8)
    - [     0.009901635958926,    -0.021311678453858,     0.000000000615646 ]
    - [    -0.021311676887880,     0.034510242169537,    -0.000000001166633 ]
    - [     0.000000000279342,    -0.000000000501855,     0.010096450770618 ]