# Thermal properties / unit cell (natom)

unit:
  temperature:   K
  free_energy:   kJ/mol
  entropy:       J/K/mol
  heat_capacity: J/K/mol

natom: 9    
cutoff_frequency: 0.00000
num_modes: 127008
num_integrated_modes: 127007

zero_point_energy:      15.6390443

thermal_properties:
- temperature:         0.0000000
  free_energy:        15.6390443
  entropy:             0.0000000
  heat_capacity:       0.0000000
  energy:             15.6390443

- temperature:        10.0000000
  free_energy:        15.6292698
  entropy:             3.9869643
  heat_capacity:      12.2923876
  energy:             15.6691395

- temperature:        20.0000000
  free_energy:        15.4946419
  entropy:            25.6892058
  heat_capacity:      57.3331462
  energy:             16.0084260

- temperature:        30.0000000
  free_energy:        15.0845792
  entropy:            56.9004890
  heat_capacity:      96.8576152
  energy:             16.7915939

- temperature:        40.0000000
  free_energy:        14.3557389
  entropy:            88.5957464
  heat_capacity:     122.8704942
  energy:             17.8995688

- temperature:        50.0000000
  free_energy:        13.3204952
  entropy:           118.0114082
  heat_capacity:     140.4218901
  energy:             19.2210656

- temperature:        60.0000000
  free_energy:        12.0042751
  entropy:           144.8131177
  heat_capacity:     153.4193178
  energy:             20.6930621

- temperature:        70.0000000
  free_energy:        10.4320702
  entropy:           169.2645284
  heat_capacity:     163.7254451
  energy:             22.2805872

- temperature:        80.0000000
  free_energy:         8.6257102
  entropy:           191.6963951
  heat_capacity:     172.1747433
  energy:             23.9614218

- temperature:        90.0000000
  free_energy:         6.6039185
  entropy:           212.3935503
  heat_capacity:     179.1962741
  energy:             25.7193380

- temperature:       100.0000000
  free_energy:         4.3828479
  entropy:           231.5866357
  heat_capacity:     185.0650088
  energy:             27.5415115

- temperature:       110.0000000
  free_energy:         1.9765716
  entropy:           249.4628959
  heat_capacity:     189.9880554
  energy:             29.4174902

- temperature:       120.0000000
  free_energy:        -0.6025383
  entropy:           266.1768265
  heat_capacity:     194.1326063
  energy:             31.3386809

- temperature:       130.0000000
  free_energy:        -3.3435243
  entropy:           281.8579404
  heat_capacity:     197.6360267
  energy:             33.2980079

- temperature:       140.0000000
  free_energy:        -6.2366226
  entropy:           296.6161794
  heat_capacity:     200.6110950
  energy:             35.2896425

- temperature:       150.0000000
  free_energy:        -9.2730872
  entropy:           310.5457664
  heat_capacity:     203.1499850
  energy:             37.3087778

- temperature:       160.0000000
  free_energy:       -12.4450481
  entropy:           323.7280510
  heat_capacity:     205.3277600
  energy:             39.3514401

- temperature:       170.0000000
  free_energy:       -15.7453937
  entropy:           336.2336922
  heat_capacity:     207.2054534
  energy:             41.4143340

- temperature:       180.0000000
  free_energy:       -19.1676729
  entropy:           348.1243793
  heat_capacity:     208.8327080
  energy:             43.4947154

- temperature:       190.0000000
  free_energy:       -22.7060125
  entropy:           359.4542185
  heat_capacity:     210.2499762
  energy:             45.5902890

- temperature:       200.0000000
  free_energy:       -26.3550473
  entropy:           370.2708653
  heat_capacity:     211.4903190
  energy:             47.6991258

- temperature:       210.0000000
  free_energy:       -30.1098602
  entropy:           380.6164606
  heat_capacity:     212.5808565
  energy:             49.8195966

- temperature:       220.0000000
  free_energy:       -33.9659314
  entropy:           390.5284086
  heat_capacity:     213.5439291
  energy:             51.9503185

- temperature:       230.0000000
  free_energy:       -37.9190943
  entropy:           400.0400283
  heat_capacity:     214.3980222
  energy:             54.0901122

- temperature:       240.0000000
  free_energy:       -41.9654972
  entropy:           409.1811014
  heat_capacity:     215.1585029
  energy:             56.2379672

- temperature:       250.0000000
  free_energy:       -46.1015705
  entropy:           417.9783350
  heat_capacity:     215.8382057
  energy:             58.3930132

- temperature:       260.0000000
  free_energy:       -50.3239981
  entropy:           426.4557546
  heat_capacity:     216.4479005
  energy:             60.5544981

- temperature:       270.0000000
  free_energy:       -54.6296920
  entropy:           434.6350383
  heat_capacity:     216.9966661
  energy:             62.7217683

- temperature:       280.0000000
  free_energy:       -59.0157707
  entropy:           442.5358026
  heat_capacity:     217.4921902
  energy:             64.8942541

- temperature:       290.0000000
  free_energy:       -63.4795392
  entropy:           450.1758474
  heat_capacity:     217.9410114
  energy:             67.0714565

- temperature:       300.0000000
  free_energy:       -68.0184727
  entropy:           457.5713667
  heat_capacity:     218.3487144
  energy:             69.2529373

- temperature:       310.0000000
  free_energy:       -72.6302008
  entropy:           464.7371311
  heat_capacity:     218.7200887
  energy:             71.4383098

- temperature:       320.0000000
  free_energy:       -77.3124946
  entropy:           471.6866450
  heat_capacity:     219.0592582
  energy:             73.6272318

- temperature:       330.0000000
  free_energy:       -82.0632543
  entropy:           478.4322843
  heat_capacity:     219.3697872
  energy:             75.8193996

- temperature:       340.0000000
  free_energy:       -86.8804987
  entropy:           484.9854151
  heat_capacity:     219.6547675
  energy:             78.0145424

- temperature:       350.0000000
  free_energy:       -91.7623558
  entropy:           491.3564988
  heat_capacity:     219.9168904
  energy:             80.2124188

- temperature:       360.0000000
  free_energy:       -96.7070541
  entropy:           497.5551833
  heat_capacity:     220.1585066
  energy:             82.4128119

- temperature:       370.0000000
  free_energy:      -101.7129146
  entropy:           503.5903839
  heat_capacity:     220.3816761
  energy:             84.6155274

- temperature:       380.0000000
  free_energy:      -106.7783444
  entropy:           509.4703537
  heat_capacity:     220.5882094
  energy:             86.8203900

- temperature:       390.0000000
  free_energy:      -111.9018298
  entropy:           515.2027470
  heat_capacity:     220.7797028
  energy:             89.0272415

- temperature:       400.0000000
  free_energy:      -117.0819312
  entropy:           520.7946745
  heat_capacity:     220.9575674
  energy:             91.2359387

- temperature:       410.0000000
  free_energy:      -122.3172772
  entropy:           526.2527532
  heat_capacity:     221.1230545
  energy:             93.4463516

- temperature:       420.0000000
  free_energy:      -127.6065607
  entropy:           531.5831497
  heat_capacity:     221.2772761
  energy:             95.6583622

- temperature:       430.0000000
  free_energy:      -132.9485338
  entropy:           536.7916202
  heat_capacity:     221.4212235
  energy:             97.8718629

- temperature:       440.0000000
  free_energy:      -138.3420046
  entropy:           541.8835455
  heat_capacity:     221.5557819
  energy:            100.0867554

- temperature:       450.0000000
  free_energy:      -143.7858331
  entropy:           546.8639621
  heat_capacity:     221.6817442
  energy:            102.3029499

- temperature:       460.0000000
  free_energy:      -149.2789279
  entropy:           551.7375912
  heat_capacity:     221.7998218
  energy:            104.5203640

- temperature:       470.0000000
  free_energy:      -154.8202437
  entropy:           556.5088636
  heat_capacity:     221.9106548
  energy:            106.7389222

- temperature:       480.0000000
  free_energy:      -160.4087779
  entropy:           561.1819433
  heat_capacity:     222.0148197
  energy:            108.9585549

- temperature:       490.0000000
  free_energy:      -166.0435684
  entropy:           565.7607479
  heat_capacity:     222.1128376
  energy:            111.1791981

- temperature:       500.0000000
  free_energy:      -171.7236910
  entropy:           570.2489673
  heat_capacity:     222.2051797
  energy:            113.4007927

- temperature:       510.0000000
  free_energy:      -177.4482574
  entropy:           574.6500815
  heat_capacity:     222.2922732
  energy:            115.6232842

- temperature:       520.0000000
  free_energy:      -183.2164132
  entropy:           578.9673754
  heat_capacity:     222.3745063
  energy:            117.8466220

- temperature:       530.0000000
  free_energy:      -189.0273359
  entropy:           583.2039531
  heat_capacity:     222.4522319
  energy:            120.0707593

- temperature:       540.0000000
  free_energy:      -194.8802330
  entropy:           587.3627513
  heat_capacity:     222.5257719
  energy:            122.2956527

- temperature:       550.0000000
  free_energy:      -200.7743409
  entropy:           591.4465503
  heat_capacity:     222.5954198
  energy:            124.5212618

- temperature:       560.0000000
  free_energy:      -206.7089228
  entropy:           595.4579854
  heat_capacity:     222.6614443
  energy:            126.7475490

- temperature:       570.0000000
  free_energy:      -212.6832677
  entropy:           599.3995564
  heat_capacity:     222.7240911
  energy:            128.9744794

- temperature:       580.0000000
  free_energy:      -218.6966890
  entropy:           603.2736367
  heat_capacity:     222.7835857
  energy:            131.2020203

- temperature:       590.0000000
  free_energy:      -224.7485230
  entropy:           607.0824819
  heat_capacity:     222.8401351
  energy:            133.4301413

- temperature:       600.0000000
  free_energy:      -230.8381283
  entropy:           610.8282370
  heat_capacity:     222.8939298
  energy:            135.6588138

- temperature:       610.0000000
  free_energy:      -236.9648843
  entropy:           614.5129436
  heat_capacity:     222.9451451
  energy:            137.8880113

- temperature:       620.0000000
  free_energy:      -243.1281902
  entropy:           618.1385466
  heat_capacity:     222.9939425
  energy:            140.1177087

- temperature:       630.0000000
  free_energy:      -249.3274644
  entropy:           621.7069000
  heat_capacity:     223.0404714
  energy:            142.3478826

- temperature:       640.0000000
  free_energy:      -255.5621433
  entropy:           625.2197723
  heat_capacity:     223.0848696
  energy:            144.5785110

- temperature:       650.0000000
  free_energy:      -261.8316806
  entropy:           628.6788521
  heat_capacity:     223.1272648
  energy:            146.8095733

- temperature:       660.0000000
  free_energy:      -268.1355464
  entropy:           632.0857522
  heat_capacity:     223.1677754
  energy:            149.0410500

- temperature:       670.0000000
  free_energy:      -274.4732268
  entropy:           635.4420145
  heat_capacity:     223.2065109
  energy:            151.2729229

- temperature:       680.0000000
  free_energy:      -280.8442228
  entropy:           638.7491139
  heat_capacity:     223.2435732
  energy:            153.5051747

- temperature:       690.0000000
  free_energy:      -287.2480499
  entropy:           642.0084623
  heat_capacity:     223.2790570
  energy:            155.7377891

- temperature:       700.0000000
  free_energy:      -293.6842374
  entropy:           645.2214118
  heat_capacity:     223.3130505
  energy:            157.9707508

- temperature:       710.0000000
  free_energy:      -300.1523278
  entropy:           648.3892581
  heat_capacity:     223.3456356
  energy:            160.2040454

- temperature:       720.0000000
  free_energy:      -306.6518764
  entropy:           651.5132437
  heat_capacity:     223.3768888
  energy:            162.4376591

- temperature:       730.0000000
  free_energy:      -313.1824505
  entropy:           654.5945609
  heat_capacity:     223.4068817
  energy:            164.6715790

- temperature:       740.0000000
  free_energy:      -319.7436292
  entropy:           657.6343540
  heat_capacity:     223.4356807
  energy:            166.9057928

- temperature:       750.0000000
  free_energy:      -326.3350028
  entropy:           660.6337222
  heat_capacity:     223.4633484
  energy:            169.1402888

- temperature:       760.0000000
  free_energy:      -332.9561724
  entropy:           663.5937218
  heat_capacity:     223.4899429
  energy:            171.3750561

- temperature:       770.0000000
  free_energy:      -339.6067494
  entropy:           666.5153684
  heat_capacity:     223.5155191
  energy:            173.6100843

- temperature:       780.0000000
  free_energy:      -346.2863552
  entropy:           669.3996391
  heat_capacity:     223.5401280
  energy:            175.8453633

- temperature:       790.0000000
  free_energy:      -352.9946207
  entropy:           672.2474741
  heat_capacity:     223.5638177
  energy:            178.0808838

- temperature:       800.0000000
  free_energy:      -359.7311862
  entropy:           675.0597787
  heat_capacity:     223.5866333
  energy:            180.3166367

- temperature:       810.0000000
  free_energy:      -366.4957008
  entropy:           677.8374253
  heat_capacity:     223.6086172
  energy:            182.5526137

- temperature:       820.0000000
  free_energy:      -373.2878220
  entropy:           680.5812542
  heat_capacity:     223.6298093
  energy:            184.7888065

- temperature:       830.0000000
  free_energy:      -380.1072159
  entropy:           683.2920762
  heat_capacity:     223.6502470
  energy:            187.0252073

- temperature:       840.0000000
  free_energy:      -386.9535561
  entropy:           685.9706728
  heat_capacity:     223.6699656
  energy:            189.2618090

- temperature:       850.0000000
  free_energy:      -393.8265244
  entropy:           688.6177986
  heat_capacity:     223.6889985
  energy:            191.4986044

- temperature:       860.0000000
  free_energy:      -400.7258096
  entropy:           691.2341819
  heat_capacity:     223.7073769
  energy:            193.7355868

- temperature:       870.0000000
  free_energy:      -407.6511079
  entropy:           693.8205262
  heat_capacity:     223.7251305
  energy:            195.9727498

- temperature:       880.0000000
  free_energy:      -414.6021223
  entropy:           696.3775110
  heat_capacity:     223.7422872
  energy:            198.2100874

- temperature:       890.0000000
  free_energy:      -421.5785625
  entropy:           698.9057934
  heat_capacity:     223.7588734
  energy:            200.4475937

- temperature:       900.0000000
  free_energy:      -428.5801446
  entropy:           701.4060085
  heat_capacity:     223.7749142
  energy:            202.6852631

- temperature:       910.0000000
  free_energy:      -435.6065911
  entropy:           703.8787707
  heat_capacity:     223.7904330
  energy:            204.9230902

- temperature:       920.0000000
  free_energy:      -442.6576305
  entropy:           706.3246745
  heat_capacity:     223.8054523
  energy:            207.1610700

- temperature:       930.0000000
  free_energy:      -449.7329970
  entropy:           708.7442954
  heat_capacity:     223.8199933
  energy:            209.3991977

- temperature:       940.0000000
  free_energy:      -456.8324307
  entropy:           711.1381905
  heat_capacity:     223.8340759
  energy:            211.6374684

- temperature:       950.0000000
  free_energy:      -463.9556769
  entropy:           713.5068996
  heat_capacity:     223.8477193
  energy:            213.8758777

- temperature:       960.0000000
  free_energy:      -471.1024864
  entropy:           715.8509456
  heat_capacity:     223.8609415
  energy:            216.1144214

- temperature:       970.0000000
  free_energy:      -478.2726153
  entropy:           718.1708355
  heat_capacity:     223.8737596
  energy:            218.3530952

- temperature:       980.0000000
  free_energy:      -485.4658243
  entropy:           720.4670608
  heat_capacity:     223.8861898
  energy:            220.5918953

- temperature:       990.0000000
  free_energy:      -492.6818792
  entropy:           722.7400979
  heat_capacity:     223.8982477
  energy:            222.8308178

- temperature:      1000.0000000
  free_energy:      -499.9205505
  entropy:           724.9904095
  heat_capacity:     223.9099480
  energy:            225.0698590
