# Thermal properties / unit cell (natom)

unit:
  temperature:   K
  free_energy:   kJ/mol
  entropy:       J/K/mol
  heat_capacity: J/K/mol

natom: 3    
cutoff_frequency: 0.00000
num_modes: 493848
num_integrated_modes: 493845

zero_point_energy:      10.7282621

thermal_properties:
- temperature:         0.0000000
  free_energy:        10.7282621
  entropy:             0.0000000
  heat_capacity:       0.0000000
  energy:             10.7282621

- temperature:        10.0000000
  free_energy:        10.7280281
  entropy:             0.0852326
  heat_capacity:       0.2250333
  energy:             10.7288804

- temperature:        20.0000000
  free_energy:        10.7252939
  entropy:             0.5508977
  heat_capacity:       1.5207703
  energy:             10.7363119

- temperature:        30.0000000
  free_energy:        10.7147481
  entropy:             1.6876019
  heat_capacity:       4.5944551
  energy:             10.7653761

- temperature:        40.0000000
  free_energy:        10.6889000
  entropy:             3.6098341
  heat_capacity:       9.1856020
  energy:             10.8332934

- temperature:        50.0000000
  free_energy:        10.6402063
  entropy:             6.2336195
  heat_capacity:      14.6219302
  energy:             10.9518873

- temperature:        60.0000000
  free_energy:        10.5624050
  entropy:             9.4042944
  heat_capacity:      20.3432027
  energy:             11.1266626

- temperature:        70.0000000
  free_energy:        10.4508222
  entropy:            12.9651571
  heat_capacity:      25.9589767
  energy:             11.3583832

- temperature:        80.0000000
  free_energy:        10.3022579
  entropy:            16.7801048
  heat_capacity:      31.2259232
  energy:             11.6446663

- temperature:        90.0000000
  free_energy:        10.1147411
  entropy:            20.7396520
  heat_capacity:      36.0180448
  energy:             11.9813098

- temperature:       100.0000000
  free_energy:         9.8872636
  entropy:            24.7603249
  heat_capacity:      40.2925366
  energy:             12.3632961

- temperature:       110.0000000
  free_energy:         9.6195361
  entropy:            28.7811432
  heat_capacity:      44.0583327
  energy:             12.7854618

- temperature:       120.0000000
  free_energy:         9.3117848
  entropy:            32.7591976
  heat_capacity:      47.3522390
  energy:             13.2428885

- temperature:       130.0000000
  free_energy:         8.9645927
  entropy:            36.6654132
  heat_capacity:      50.2231668
  energy:             13.7310965

- temperature:       140.0000000
  free_energy:         8.5787796
  entropy:            40.4809630
  heat_capacity:      52.7227732
  energy:             14.2461144

- temperature:       150.0000000
  free_energy:         8.1553143
  entropy:            44.1944336
  heat_capacity:      54.9004512
  energy:             14.7844794

- temperature:       160.0000000
  free_energy:         7.6952521
  entropy:            47.7996763
  heat_capacity:      56.8010005
  energy:             15.3432003

- temperature:       170.0000000
  free_energy:         7.1996901
  entropy:            51.2942206
  heat_capacity:      58.4638332
  energy:             15.9197076

- temperature:       180.0000000
  free_energy:         6.6697367
  entropy:            54.6781219
  heat_capacity:      59.9229959
  energy:             16.5117986

- temperature:       190.0000000
  free_energy:         6.1064907
  entropy:            57.9531334
  heat_capacity:      61.2075833
  energy:             17.1175861

- temperature:       200.0000000
  free_energy:         5.5110275
  entropy:            61.1221182
  heat_capacity:      62.3423072
  energy:             17.7354511

- temperature:       210.0000000
  free_energy:         4.8843900
  entropy:            64.1886324
  heat_capacity:      63.3480925
  energy:             18.3640028

- temperature:       220.0000000
  free_energy:         4.2275833
  entropy:            67.1566330
  heat_capacity:      64.2426408
  energy:             19.0020425

- temperature:       230.0000000
  free_energy:         3.5415718
  entropy:            70.0302746
  heat_capacity:      65.0409340
  energy:             19.6485350

- temperature:       240.0000000
  free_energy:         2.8272782
  entropy:            72.8137693
  heat_capacity:      65.7556696
  energy:             20.3025829

- temperature:       250.0000000
  free_energy:         2.0855830
  entropy:            75.5112919
  heat_capacity:      66.3976321
  energy:             20.9634060

- temperature:       260.0000000
  free_energy:         1.3173254
  entropy:            78.1269166
  heat_capacity:      66.9760040
  energy:             21.6303237

- temperature:       270.0000000
  free_energy:         0.5233045
  entropy:            80.6645771
  heat_capacity:      67.4986261
  energy:             22.3027404

- temperature:       280.0000000
  free_energy:        -0.2957189
  entropy:            83.1280419
  heat_capacity:      67.9722135
  energy:             22.9801329

- temperature:       290.0000000
  free_energy:        -1.1390210
  entropy:            85.5209016
  heat_capacity:      68.4025355
  energy:             23.6620405

- temperature:       300.0000000
  free_energy:        -2.0059129
  entropy:            87.8465631
  heat_capacity:      68.7945641
  energy:             24.3480560

- temperature:       310.0000000
  free_energy:        -2.8957390
  entropy:            90.1082501
  heat_capacity:      69.1525981
  energy:             25.0378185

- temperature:       320.0000000
  free_energy:        -3.8078748
  entropy:            92.3090062
  heat_capacity:      69.4803658
  energy:             25.7310071

- temperature:       330.0000000
  free_energy:        -4.7417256
  entropy:            94.4517012
  heat_capacity:      69.7811108
  energy:             26.4273358

- temperature:       340.0000000
  free_energy:        -5.6967243
  entropy:            96.5390385
  heat_capacity:      70.0576634
  energy:             27.1265488

- temperature:       350.0000000
  free_energy:        -6.6723303
  entropy:            98.5735631
  heat_capacity:      70.3125010
  energy:             27.8284167

- temperature:       360.0000000
  free_energy:        -7.6680276
  entropy:           100.5576701
  heat_capacity:      70.5477980
  energy:             28.5327337

- temperature:       370.0000000
  free_energy:        -8.6833232
  entropy:           102.4936140
  heat_capacity:      70.7654686
  energy:             29.2393140

- temperature:       380.0000000
  free_energy:        -9.7177464
  entropy:           104.3835167
  heat_capacity:      70.9672022
  energy:             29.9479899

- temperature:       390.0000000
  free_energy:       -10.7708468
  entropy:           106.2293760
  heat_capacity:      71.1544939
  energy:             30.6586099

- temperature:       400.0000000
  free_energy:       -11.8421934
  entropy:           108.0330737
  heat_capacity:      71.3286704
  energy:             31.3710361

- temperature:       410.0000000
  free_energy:       -12.9313736
  entropy:           109.7963832
  heat_capacity:      71.4909115
  energy:             32.0851435

- temperature:       420.0000000
  free_energy:       -14.0379920
  entropy:           111.5209764
  heat_capacity:      71.6422692
  energy:             32.8008181

- temperature:       430.0000000
  free_energy:       -15.1616694
  entropy:           113.2084305
  heat_capacity:      71.7836837
  energy:             33.5179558

- temperature:       440.0000000
  free_energy:       -16.3020418
  entropy:           114.8602346
  heat_capacity:      71.9159971
  energy:             34.2364614

- temperature:       450.0000000
  free_energy:       -17.4587599
  entropy:           116.4777951
  heat_capacity:      72.0399651
  energy:             34.9562479

- temperature:       460.0000000
  free_energy:       -18.6314880
  entropy:           118.0624417
  heat_capacity:      72.1562676
  energy:             35.6772352

- temperature:       470.0000000
  free_energy:       -19.8199032
  entropy:           119.6154319
  heat_capacity:      72.2655174
  energy:             36.3993497

- temperature:       480.0000000
  free_energy:       -21.0236951
  entropy:           121.1379561
  heat_capacity:      72.3682678
  energy:             37.1225239

- temperature:       490.0000000
  free_energy:       -22.2425646
  entropy:           122.6311422
  heat_capacity:      72.4650195
  energy:             37.8466951

- temperature:       500.0000000
  free_energy:       -23.4762237
  entropy:           124.0960590
  heat_capacity:      72.5562264
  energy:             38.5718058

- temperature:       510.0000000
  free_energy:       -24.7243949
  entropy:           125.5337205
  heat_capacity:      72.6423005
  energy:             39.2978025

- temperature:       520.0000000
  free_energy:       -25.9868105
  entropy:           126.9450892
  heat_capacity:      72.7236167
  energy:             40.0246359

- temperature:       530.0000000
  free_energy:       -27.2632121
  entropy:           128.3310797
  heat_capacity:      72.8005165
  energy:             40.7522602

- temperature:       540.0000000
  free_energy:       -28.5533504
  entropy:           129.6925610
  heat_capacity:      72.8733116
  energy:             41.4806326

- temperature:       550.0000000
  free_energy:       -29.8569844
  entropy:           131.0303601
  heat_capacity:      72.9422869
  energy:             42.2097137

- temperature:       560.0000000
  free_energy:       -31.1738813
  entropy:           132.3452638
  heat_capacity:      73.0077030
  energy:             42.9394665

- temperature:       570.0000000
  free_energy:       -32.5038158
  entropy:           133.6380219
  heat_capacity:      73.0697991
  energy:             43.6698566

- temperature:       580.0000000
  free_energy:       -33.8465703
  entropy:           134.9093489
  heat_capacity:      73.1287946
  energy:             44.4008521

- temperature:       590.0000000
  free_energy:       -35.2019337
  entropy:           136.1599263
  heat_capacity:      73.1848912
  energy:             45.1324229

- temperature:       600.0000000
  free_energy:       -36.5697018
  entropy:           137.3904045
  heat_capacity:      73.2382745
  energy:             45.8645409

- temperature:       610.0000000
  free_energy:       -37.9496768
  entropy:           138.6014045
  heat_capacity:      73.2891159
  energy:             46.5971799

- temperature:       620.0000000
  free_energy:       -39.3416669
  entropy:           139.7935197
  heat_capacity:      73.3375731
  energy:             47.3303153

- temperature:       630.0000000
  free_energy:       -40.7454862
  entropy:           140.9673176
  heat_capacity:      73.3837922
  energy:             48.0639239

- temperature:       640.0000000
  free_energy:       -42.1609540
  entropy:           142.1233409
  heat_capacity:      73.4279081
  energy:             48.7979841

- temperature:       650.0000000
  free_energy:       -43.5878955
  entropy:           143.2621091
  heat_capacity:      73.4700458
  energy:             49.5324755

- temperature:       660.0000000
  free_energy:       -45.0261404
  entropy:           144.3841200
  heat_capacity:      73.5103213
  energy:             50.2673788

- temperature:       670.0000000
  free_energy:       -46.4755236
  entropy:           145.4898502
  heat_capacity:      73.5488422
  energy:             51.0026760

- temperature:       680.0000000
  free_energy:       -47.9358846
  entropy:           146.5797570
  heat_capacity:      73.5857084
  energy:             51.7383501

- temperature:       690.0000000
  free_energy:       -49.4070675
  entropy:           147.6542789
  heat_capacity:      73.6210130
  energy:             52.4743850

- temperature:       700.0000000
  free_energy:       -50.8889203
  entropy:           148.7138369
  heat_capacity:      73.6548424
  energy:             53.2107655

- temperature:       710.0000000
  free_energy:       -52.3812957
  entropy:           149.7588350
  heat_capacity:      73.6872775
  energy:             53.9474772

- temperature:       720.0000000
  free_energy:       -53.8840498
  entropy:           150.7896617
  heat_capacity:      73.7183934
  energy:             54.6845066

- temperature:       730.0000000
  free_energy:       -55.3970429
  entropy:           151.8066902
  heat_capacity:      73.7482605
  energy:             55.4218409

- temperature:       740.0000000
  free_energy:       -56.9201388
  entropy:           152.8102793
  heat_capacity:      73.7769443
  energy:             56.1594679

- temperature:       750.0000000
  free_energy:       -58.4532048
  entropy:           153.8007745
  heat_capacity:      73.8045065
  energy:             56.8973761

- temperature:       760.0000000
  free_energy:       -59.9961118
  entropy:           154.7785082
  heat_capacity:      73.8310044
  energy:             57.6355545

- temperature:       770.0000000
  free_energy:       -61.5487335
  entropy:           155.7438004
  heat_capacity:      73.8564919
  energy:             58.3739928

- temperature:       780.0000000
  free_energy:       -63.1109473
  entropy:           156.6969595
  heat_capacity:      73.8810197
  energy:             59.1126811

- temperature:       790.0000000
  free_energy:       -64.6826333
  entropy:           157.6382828
  heat_capacity:      73.9046350
  energy:             59.8516101

- temperature:       800.0000000
  free_energy:       -66.2636745
  entropy:           158.5680568
  heat_capacity:      73.9273826
  energy:             60.5907709

- temperature:       810.0000000
  free_energy:       -67.8539568
  entropy:           159.4865579
  heat_capacity:      73.9493041
  energy:             61.3301550

- temperature:       820.0000000
  free_energy:       -69.4533690
  entropy:           160.3940529
  heat_capacity:      73.9704390
  energy:             62.0697544

- temperature:       830.0000000
  free_energy:       -71.0618021
  entropy:           161.2907993
  heat_capacity:      73.9908245
  energy:             62.8095613

- temperature:       840.0000000
  free_energy:       -72.6791499
  entropy:           162.1770458
  heat_capacity:      74.0104952
  energy:             63.5495685

- temperature:       850.0000000
  free_energy:       -74.3053088
  entropy:           163.0530326
  heat_capacity:      74.0294843
  energy:             64.2897690

- temperature:       860.0000000
  free_energy:       -75.9401772
  entropy:           163.9189921
  heat_capacity:      74.0478228
  energy:             65.0301560

- temperature:       870.0000000
  free_energy:       -77.5836559
  entropy:           164.7751486
  heat_capacity:      74.0655399
  energy:             65.7707233

- temperature:       880.0000000
  free_energy:       -79.2356482
  entropy:           165.6217193
  heat_capacity:      74.0826633
  energy:             66.5114648

- temperature:       890.0000000
  free_energy:       -80.8960591
  entropy:           166.4589144
  heat_capacity:      74.0992192
  energy:             67.2523747

- temperature:       900.0000000
  free_energy:       -82.5647959
  entropy:           167.2869370
  heat_capacity:      74.1152323
  energy:             67.9934474

- temperature:       910.0000000
  free_energy:       -84.2417679
  entropy:           168.1059841
  heat_capacity:      74.1307260
  energy:             68.7346776

- temperature:       920.0000000
  free_energy:       -85.9268863
  entropy:           168.9162463
  heat_capacity:      74.1457225
  energy:             69.4760603

- temperature:       930.0000000
  free_energy:       -87.6200642
  entropy:           169.7179082
  heat_capacity:      74.1602428
  energy:             70.2175905

- temperature:       940.0000000
  free_energy:       -89.3212164
  entropy:           170.5111489
  heat_capacity:      74.1743068
  energy:             70.9592636

- temperature:       950.0000000
  free_energy:       -91.0302597
  entropy:           171.2961419
  heat_capacity:      74.1879334
  energy:             71.7010752

- temperature:       960.0000000
  free_energy:       -92.7471123
  entropy:           172.0730554
  heat_capacity:      74.2011404
  energy:             72.4430209

- temperature:       970.0000000
  free_energy:       -94.4716944
  entropy:           172.8420526
  heat_capacity:      74.2139449
  energy:             73.1850966

- temperature:       980.0000000
  free_energy:       -96.2039275
  entropy:           173.6032918
  heat_capacity:      74.2263630
  energy:             73.9272985

- temperature:       990.0000000
  free_energy:       -97.9437349
  entropy:           174.3569268
  heat_capacity:      74.2384101
  energy:             74.6696227

- temperature:      1000.0000000
  free_energy:       -99.6910412
  entropy:           175.1031067
  heat_capacity:      74.2501008
  energy:             75.4120655
