phonopy:
  version: "2.37.1"
  frequency_unit_conversion_factor: 15.633302
  symmetry_tolerance: 1.00000e-05

space_group:
  type: "P-3m1"
  number: 164
  Hall_symbol: "-P 3 2\""

primitive_matrix:
- [  1.000000000000000,  0.000000000000000, -0.000000000000000 ]
- [  0.000000000000000,  1.000000000000000, -0.000000000000000 ]
- [  0.000000000000000,  0.000000000000000,  1.000000000000000 ]

supercell_matrix:
- [   3,   0,   0 ]
- [   0,   3,   0 ]
- [   0,   0,   4 ]

primitive_cell:
  lattice:
  - [     4.673940405127589,     0.000000000000000,     0.000000000000000 ] # a
  - [    -2.336969979281862,     4.047750987666313,     0.000000000000000 ] # b
  - [     0.000000433925190,     0.000001146636655,     3.040927654773788 ] # c
  points:
  - symbol: Li # 1
    coordinates: [  0.999999985159290,  0.999999986485610,  0.947450400848962 ]
    mass: 6.940000
  - symbol: Li # 2
    coordinates: [  0.666666663103064,  0.333333339698499,  0.719216248012384 ]
    mass: 6.940000
  - symbol: Sn # 3
    coordinates: [  0.333333351505630,  0.666666674688799,  0.333333349132205 ]
    mass: 118.710000
  reciprocal_lattice: # without 2pi
  - [     0.213952235869961,     0.123525373411520,    -0.000000077107387 ] # a*
  - [     0.000000000000000,     0.247050770427096,    -0.000000093154952 ] # b*
  - [     0.000000000000000,     0.000000000000000,     0.328847020885273 ] # c*

unit_cell:
  lattice:
  - [     4.673940405127588,     0.000000000000000,     0.000000000000000 ] # a
  - [    -2.336969979281862,     4.047750987666313,     0.000000000000000 ] # b
  - [     0.000000433925190,     0.000001146636655,     3.040927654773788 ] # c
  points:
  - symbol: Li # 1
    coordinates: [  0.999999985159290,  0.999999986485610,  0.947450400848962 ]
    mass: 6.940000
    reduced_to: 1
  - symbol: Li # 2
    coordinates: [  0.666666663103064,  0.333333339698499,  0.719216248012384 ]
    mass: 6.940000
    reduced_to: 2
  - symbol: Sn # 3
    coordinates: [  0.333333351505630,  0.666666674688799,  0.333333349132205 ]
    mass: 118.710000
    reduced_to: 3

supercell:
  lattice:
  - [    14.021821215382765,     0.000000000000000,     0.000000000000000 ] # a
  - [    -7.010909937845585,    12.143252962998940,     0.000000000000000 ] # b
  - [     0.000001735700758,     0.000004586546620,    12.163710619095154 ] # c
  points:
  - symbol: Li # 1
    coordinates: [  0.333333328386430,  0.333333328828537,  0.236862600212241 ]
    mass: 6.940000
    reduced_to: 1
  - symbol: Li # 2
    coordinates: [  0.666666661719763,  0.333333328828537,  0.236862600212241 ]
    mass: 6.940000
    reduced_to: 1
  - symbol: Li # 3
    coordinates: [  0.999999995053097,  0.333333328828537,  0.236862600212241 ]
    mass: 6.940000
    reduced_to: 1
  - symbol: Li # 4
    coordinates: [  0.333333328386430,  0.666666662161870,  0.236862600212241 ]
    mass: 6.940000
    reduced_to: 1
  - symbol: Li # 5
    coordinates: [  0.666666661719763,  0.666666662161870,  0.236862600212241 ]
    mass: 6.940000
    reduced_to: 1
  - symbol: Li # 6
    coordinates: [  0.999999995053097,  0.666666662161870,  0.236862600212241 ]
    mass: 6.940000
    reduced_to: 1
  - symbol: Li # 7
    coordinates: [  0.333333328386430,  0.999999995495203,  0.236862600212241 ]
    mass: 6.940000
    reduced_to: 1
  - symbol: Li # 8
    coordinates: [  0.666666661719763,  0.999999995495203,  0.236862600212241 ]
    mass: 6.940000
    reduced_to: 1
  - symbol: Li # 9
    coordinates: [  0.999999995053097,  0.999999995495203,  0.236862600212241 ]
    mass: 6.940000
    reduced_to: 1
  - symbol: Li # 10
    coordinates: [  0.333333328386430,  0.333333328828537,  0.486862600212241 ]
    mass: 6.940000
    reduced_to: 1
  - symbol: Li # 11
    coordinates: [  0.666666661719763,  0.333333328828537,  0.486862600212241 ]
    mass: 6.940000
    reduced_to: 1
  - symbol: Li # 12
    coordinates: [  0.999999995053097,  0.333333328828537,  0.486862600212241 ]
    mass: 6.940000
    reduced_to: 1
  - symbol: Li # 13
    coordinates: [  0.333333328386430,  0.666666662161870,  0.486862600212241 ]
    mass: 6.940000
    reduced_to: 1
  - symbol: Li # 14
    coordinates: [  0.666666661719763,  0.666666662161870,  0.486862600212241 ]
    mass: 6.940000
    reduced_to: 1
  - symbol: Li # 15
    coordinates: [  0.999999995053097,  0.666666662161870,  0.486862600212241 ]
    mass: 6.940000
    reduced_to: 1
  - symbol: Li # 16
    coordinates: [  0.333333328386430,  0.999999995495203,  0.486862600212241 ]
    mass: 6.940000
    reduced_to: 1
  - symbol: Li # 17
    coordinates: [  0.666666661719763,  0.999999995495203,  0.486862600212241 ]
    mass: 6.940000
    reduced_to: 1
  - symbol: Li # 18
    coordinates: [  0.999999995053097,  0.999999995495203,  0.486862600212241 ]
    mass: 6.940000
    reduced_to: 1
  - symbol: Li # 19
    coordinates: [  0.333333328386430,  0.333333328828537,  0.736862600212241 ]
    mass: 6.940000
    reduced_to: 1
  - symbol: Li # 20
    coordinates: [  0.666666661719763,  0.333333328828537,  0.736862600212241 ]
    mass: 6.940000
    reduced_to: 1
  - symbol: Li # 21
    coordinates: [  0.999999995053097,  0.333333328828537,  0.736862600212241 ]
    mass: 6.940000
    reduced_to: 1
  - symbol: Li # 22
    coordinates: [  0.333333328386430,  0.666666662161870,  0.736862600212241 ]
    mass: 6.940000
    reduced_to: 1
  - symbol: Li # 23
    coordinates: [  0.666666661719763,  0.666666662161870,  0.736862600212241 ]
    mass: 6.940000
    reduced_to: 1
  - symbol: Li # 24
    coordinates: [  0.999999995053097,  0.666666662161870,  0.736862600212241 ]
    mass: 6.940000
    reduced_to: 1
  - symbol: Li # 25
    coordinates: [  0.333333328386430,  0.999999995495203,  0.736862600212241 ]
    mass: 6.940000
    reduced_to: 1
  - symbol: Li # 26
    coordinates: [  0.666666661719763,  0.999999995495203,  0.736862600212241 ]
    mass: 6.940000
    reduced_to: 1
  - symbol: Li # 27
    coordinates: [  0.999999995053097,  0.999999995495203,  0.736862600212241 ]
    mass: 6.940000
    reduced_to: 1
  - symbol: Li # 28
    coordinates: [  0.333333328386430,  0.333333328828537,  0.986862600212241 ]
    mass: 6.940000
    reduced_to: 1
  - symbol: Li # 29
    coordinates: [  0.666666661719763,  0.333333328828537,  0.986862600212241 ]
    mass: 6.940000
    reduced_to: 1
  - symbol: Li # 30
    coordinates: [  0.999999995053097,  0.333333328828537,  0.986862600212241 ]
    mass: 6.940000
    reduced_to: 1
  - symbol: Li # 31
    coordinates: [  0.333333328386430,  0.666666662161870,  0.986862600212241 ]
    mass: 6.940000
    reduced_to: 1
  - symbol: Li # 32
    coordinates: [  0.666666661719763,  0.666666662161870,  0.986862600212241 ]
    mass: 6.940000
    reduced_to: 1
  - symbol: Li # 33
    coordinates: [  0.999999995053097,  0.666666662161870,  0.986862600212241 ]
    mass: 6.940000
    reduced_to: 1
  - symbol: Li # 34
    coordinates: [  0.333333328386430,  0.999999995495203,  0.986862600212241 ]
    mass: 6.940000
    reduced_to: 1
  - symbol: Li # 35
    coordinates: [  0.666666661719763,  0.999999995495203,  0.986862600212241 ]
    mass: 6.940000
    reduced_to: 1
  - symbol: Li # 36
    coordinates: [  0.999999995053097,  0.999999995495203,  0.986862600212241 ]
    mass: 6.940000
    reduced_to: 1
  - symbol: Li # 37
    coordinates: [  0.222222221034355,  0.111111113232833,  0.179804062003096 ]
    mass: 6.940000
    reduced_to: 37
  - symbol: Li # 38
    coordinates: [  0.555555554367688,  0.111111113232833,  0.179804062003096 ]
    mass: 6.940000
    reduced_to: 37
  - symbol: Li # 39
    coordinates: [  0.888888887701021,  0.111111113232833,  0.179804062003096 ]
    mass: 6.940000
    reduced_to: 37
  - symbol: Li # 40
    coordinates: [  0.222222221034355,  0.444444446566166,  0.179804062003096 ]
    mass: 6.940000
    reduced_to: 37
  - symbol: Li # 41
    coordinates: [  0.555555554367688,  0.444444446566166,  0.179804062003096 ]
    mass: 6.940000
    reduced_to: 37
  - symbol: Li # 42
    coordinates: [  0.888888887701021,  0.444444446566166,  0.179804062003096 ]
    mass: 6.940000
    reduced_to: 37
  - symbol: Li # 43
    coordinates: [  0.222222221034355,  0.777777779899500,  0.179804062003096 ]
    mass: 6.940000
    reduced_to: 37
  - symbol: Li # 44
    coordinates: [  0.555555554367688,  0.777777779899500,  0.179804062003096 ]
    mass: 6.940000
    reduced_to: 37
  - symbol: Li # 45
    coordinates: [  0.888888887701021,  0.777777779899500,  0.179804062003096 ]
    mass: 6.940000
    reduced_to: 37
  - symbol: Li # 46
    coordinates: [  0.222222221034355,  0.111111113232833,  0.429804062003096 ]
    mass: 6.940000
    reduced_to: 37
  - symbol: Li # 47
    coordinates: [  0.555555554367688,  0.111111113232833,  0.429804062003096 ]
    mass: 6.940000
    reduced_to: 37
  - symbol: Li # 48
    coordinates: [  0.888888887701021,  0.111111113232833,  0.429804062003096 ]
    mass: 6.940000
    reduced_to: 37
  - symbol: Li # 49
    coordinates: [  0.222222221034355,  0.444444446566166,  0.429804062003096 ]
    mass: 6.940000
    reduced_to: 37
  - symbol: Li # 50
    coordinates: [  0.555555554367688,  0.444444446566166,  0.429804062003096 ]
    mass: 6.940000
    reduced_to: 37
  - symbol: Li # 51
    coordinates: [  0.888888887701021,  0.444444446566166,  0.429804062003096 ]
    mass: 6.940000
    reduced_to: 37
  - symbol: Li # 52
    coordinates: [  0.222222221034355,  0.777777779899500,  0.429804062003096 ]
    mass: 6.940000
    reduced_to: 37
  - symbol: Li # 53
    coordinates: [  0.555555554367688,  0.777777779899500,  0.429804062003096 ]
    mass: 6.940000
    reduced_to: 37
  - symbol: Li # 54
    coordinates: [  0.888888887701021,  0.777777779899500,  0.429804062003096 ]
    mass: 6.940000
    reduced_to: 37
  - symbol: Li # 55
    coordinates: [  0.222222221034355,  0.111111113232833,  0.679804062003096 ]
    mass: 6.940000
    reduced_to: 37
  - symbol: Li # 56
    coordinates: [  0.555555554367688,  0.111111113232833,  0.679804062003096 ]
    mass: 6.940000
    reduced_to: 37
  - symbol: Li # 57
    coordinates: [  0.888888887701021,  0.111111113232833,  0.679804062003096 ]
    mass: 6.940000
    reduced_to: 37
  - symbol: Li # 58
    coordinates: [  0.222222221034355,  0.444444446566166,  0.679804062003096 ]
    mass: 6.940000
    reduced_to: 37
  - symbol: Li # 59
    coordinates: [  0.555555554367688,  0.444444446566166,  0.679804062003096 ]
    mass: 6.940000
    reduced_to: 37
  - symbol: Li # 60
    coordinates: [  0.888888887701021,  0.444444446566166,  0.679804062003096 ]
    mass: 6.940000
    reduced_to: 37
  - symbol: Li # 61
    coordinates: [  0.222222221034355,  0.777777779899500,  0.679804062003096 ]
    mass: 6.940000
    reduced_to: 37
  - symbol: Li # 62
    coordinates: [  0.555555554367688,  0.777777779899500,  0.679804062003096 ]
    mass: 6.940000
    reduced_to: 37
  - symbol: Li # 63
    coordinates: [  0.888888887701021,  0.777777779899500,  0.679804062003096 ]
    mass: 6.940000
    reduced_to: 37
  - symbol: Li # 64
    coordinates: [  0.222222221034355,  0.111111113232833,  0.929804062003096 ]
    mass: 6.940000
    reduced_to: 37
  - symbol: Li # 65
    coordinates: [  0.555555554367688,  0.111111113232833,  0.929804062003096 ]
    mass: 6.940000
    reduced_to: 37
  - symbol: Li # 66
    coordinates: [  0.888888887701021,  0.111111113232833,  0.929804062003096 ]
    mass: 6.940000
    reduced_to: 37
  - symbol: Li # 67
    coordinates: [  0.222222221034355,  0.444444446566166,  0.929804062003096 ]
    mass: 6.940000
    reduced_to: 37
  - symbol: Li # 68
    coordinates: [  0.555555554367688,  0.444444446566166,  0.929804062003096 ]
    mass: 6.940000
    reduced_to: 37
  - symbol: Li # 69
    coordinates: [  0.888888887701021,  0.444444446566166,  0.929804062003096 ]
    mass: 6.940000
    reduced_to: 37
  - symbol: Li # 70
    coordinates: [  0.222222221034355,  0.777777779899500,  0.929804062003096 ]
    mass: 6.940000
    reduced_to: 37
  - symbol: Li # 71
    coordinates: [  0.555555554367688,  0.777777779899500,  0.929804062003096 ]
    mass: 6.940000
    reduced_to: 37
  - symbol: Li # 72
    coordinates: [  0.888888887701021,  0.777777779899500,  0.929804062003096 ]
    mass: 6.940000
    reduced_to: 37
  - symbol: Sn # 73
    coordinates: [  0.111111117168543,  0.222222224896266,  0.083333337283051 ]
    mass: 118.710000
    reduced_to: 73
  - symbol: Sn # 74
    coordinates: [  0.444444450501877,  0.222222224896266,  0.083333337283051 ]
    mass: 118.710000
    reduced_to: 73
  - symbol: Sn # 75
    coordinates: [  0.777777783835210,  0.222222224896266,  0.083333337283051 ]
    mass: 118.710000
    reduced_to: 73
  - symbol: Sn # 76
    coordinates: [  0.111111117168543,  0.555555558229600,  0.083333337283051 ]
    mass: 118.710000
    reduced_to: 73
  - symbol: Sn # 77
    coordinates: [  0.444444450501877,  0.555555558229600,  0.083333337283051 ]
    mass: 118.710000
    reduced_to: 73
  - symbol: Sn # 78
    coordinates: [  0.777777783835210,  0.555555558229600,  0.083333337283051 ]
    mass: 118.710000
    reduced_to: 73
  - symbol: Sn # 79
    coordinates: [  0.111111117168543,  0.888888891562933,  0.083333337283051 ]
    mass: 118.710000
    reduced_to: 73
  - symbol: Sn # 80
    coordinates: [  0.444444450501877,  0.888888891562933,  0.083333337283051 ]
    mass: 118.710000
    reduced_to: 73
  - symbol: Sn # 81
    coordinates: [  0.777777783835210,  0.888888891562933,  0.083333337283051 ]
    mass: 118.710000
    reduced_to: 73
  - symbol: Sn # 82
    coordinates: [  0.111111117168543,  0.222222224896266,  0.333333337283051 ]
    mass: 118.710000
    reduced_to: 73
  - symbol: Sn # 83
    coordinates: [  0.444444450501877,  0.222222224896266,  0.333333337283051 ]
    mass: 118.710000
    reduced_to: 73
  - symbol: Sn # 84
    coordinates: [  0.777777783835210,  0.222222224896266,  0.333333337283051 ]
    mass: 118.710000
    reduced_to: 73
  - symbol: Sn # 85
    coordinates: [  0.111111117168543,  0.555555558229600,  0.333333337283051 ]
    mass: 118.710000
    reduced_to: 73
  - symbol: Sn # 86
    coordinates: [  0.444444450501877,  0.555555558229600,  0.333333337283051 ]
    mass: 118.710000
    reduced_to: 73
  - symbol: Sn # 87
    coordinates: [  0.777777783835210,  0.555555558229600,  0.333333337283051 ]
    mass: 118.710000
    reduced_to: 73
  - symbol: Sn # 88
    coordinates: [  0.111111117168543,  0.888888891562933,  0.333333337283051 ]
    mass: 118.710000
    reduced_to: 73
  - symbol: Sn # 89
    coordinates: [  0.444444450501877,  0.888888891562933,  0.333333337283051 ]
    mass: 118.710000
    reduced_to: 73
  - symbol: Sn # 90
    coordinates: [  0.777777783835210,  0.888888891562933,  0.333333337283051 ]
    mass: 118.710000
    reduced_to: 73
  - symbol: Sn # 91
    coordinates: [  0.111111117168543,  0.222222224896266,  0.583333337283051 ]
    mass: 118.710000
    reduced_to: 73
  - symbol: Sn # 92
    coordinates: [  0.444444450501877,  0.222222224896266,  0.583333337283051 ]
    mass: 118.710000
    reduced_to: 73
  - symbol: Sn # 93
    coordinates: [  0.777777783835210,  0.222222224896266,  0.583333337283051 ]
    mass: 118.710000
    reduced_to: 73
  - symbol: Sn # 94
    coordinates: [  0.111111117168543,  0.555555558229600,  0.583333337283051 ]
    mass: 118.710000
    reduced_to: 73
  - symbol: Sn # 95
    coordinates: [  0.444444450501877,  0.555555558229600,  0.583333337283051 ]
    mass: 118.710000
    reduced_to: 73
  - symbol: Sn # 96
    coordinates: [  0.777777783835210,  0.555555558229600,  0.583333337283051 ]
    mass: 118.710000
    reduced_to: 73
  - symbol: Sn # 97
    coordinates: [  0.111111117168543,  0.888888891562933,  0.583333337283051 ]
    mass: 118.710000
    reduced_to: 73
  - symbol: Sn # 98
    coordinates: [  0.444444450501877,  0.888888891562933,  0.583333337283051 ]
    mass: 118.710000
    reduced_to: 73
  - symbol: Sn # 99
    coordinates: [  0.777777783835210,  0.888888891562933,  0.583333337283051 ]
    mass: 118.710000
    reduced_to: 73
  - symbol: Sn # 100
    coordinates: [  0.111111117168543,  0.222222224896266,  0.833333337283051 ]
    mass: 118.710000
    reduced_to: 73
  - symbol: Sn # 101
    coordinates: [  0.444444450501877,  0.222222224896266,  0.833333337283051 ]
    mass: 118.710000
    reduced_to: 73
  - symbol: Sn # 102
    coordinates: [  0.777777783835210,  0.222222224896266,  0.833333337283051 ]
    mass: 118.710000
    reduced_to: 73
  - symbol: Sn # 103
    coordinates: [  0.111111117168543,  0.555555558229600,  0.833333337283051 ]
    mass: 118.710000
    reduced_to: 73
  - symbol: Sn # 104
    coordinates: [  0.444444450501877,  0.555555558229600,  0.833333337283051 ]
    mass: 118.710000
    reduced_to: 73
  - symbol: Sn # 105
    coordinates: [  0.777777783835210,  0.555555558229600,  0.833333337283051 ]
    mass: 118.710000
    reduced_to: 73
  - symbol: Sn # 106
    coordinates: [  0.111111117168543,  0.888888891562933,  0.833333337283051 ]
    mass: 118.710000
    reduced_to: 73
  - symbol: Sn # 107
    coordinates: [  0.444444450501877,  0.888888891562933,  0.833333337283051 ]
    mass: 118.710000
    reduced_to: 73
  - symbol: Sn # 108
    coordinates: [  0.777777783835210,  0.888888891562933,  0.833333337283051 ]
    mass: 118.710000
    reduced_to: 73

displacements:
- atom:    1
  displacement:
    [   0.0075538333963739,  0.0000000024708634,  0.0065528315268913 ]
  forces:
  - [  -0.0186851061880589,  0.0000817246836959, -0.0570546686649323 ]
  - [  -0.0002553237136453, -0.0001357428263873, -0.0499533787369728 ]
  - [  -0.0001796993019525, -0.0000322025734931, -0.0500406920909882 ]
  - [   0.0001953340106411,  0.0001417847815901, -0.0499339625239372 ]
  - [   0.0000151751628437, -0.0001255692914128, -0.0500596091151237 ]
  - [  -0.0000219616722461,  0.0000001997686923, -0.0500162951648235 ]
  - [   0.0001583807170391,  0.0003156984748784, -0.0498886927962303 ]
  - [  -0.0000223340466619,  0.0000004927588861, -0.0500155501067638 ]
  - [   0.0000489125959575, -0.0001617180532776, -0.0501014143228531 ]
  - [  -0.0001980461820494,  0.0000025487970561, -0.0475394129753113 ]
  - [   0.0000413139568991, -0.0001297350972891, -0.0500024817883968 ]
  - [  -0.0000055520213209,  0.0000580770429224, -0.0500219576060772 ]
  - [   0.0001263327867491, -0.0000153440050781, -0.0501117855310440 ]
  - [   0.0000874657634995,  0.0000933811534196, -0.0499142967164516 ]
  - [  -0.0000246917479672,  0.0000012987293303, -0.0500017255544662 ]
  - [   0.0001383437775075,  0.0001516725169495, -0.0501027368009090 ]
  - [  -0.0000551752746105,  0.0000008756015859, -0.0500238984823227 ]
  - [   0.0000523987691849, -0.0001515804615337, -0.0499250888824463 ]
  - [  -0.0000118025618576,  0.0000007450580597, -0.0506747215986252 ]
  - [  -0.0000067783939812, -0.0000045013148338, -0.0500133372843266 ]
  - [  -0.0000122291967273,  0.0000223303213716, -0.0500085651874542 ]
  - [  -0.0000094162642199, -0.0000116552691907, -0.0500180684030056 ]
  - [   0.0000066909174166,  0.0000061930622905, -0.0500038489699364 ]
  - [   0.0000030806454561, -0.0000002579763532, -0.0500139892101288 ]
  - [  -0.0000081807374954,  0.0000129662130348, -0.0500203594565392 ]
  - [   0.0000026866327971,  0.0000013319207710, -0.0500138923525810 ]
  - [   0.0000048007350415, -0.0000231670965150, -0.0500011891126633 ]
  - [  -0.0001879123155959,  0.0000026400666684, -0.0475801602005959 ]
  - [   0.0000074557028711, -0.0000103721395135, -0.0500396899878979 ]
  - [   0.0000265641683654,  0.0001988075673580, -0.0499872453510761 ]
  - [   0.0000175147306436, -0.0001009425614029, -0.0499639287590981 ]
  - [   0.0001701441215118, -0.0000069295056164, -0.0500608943402767 ]
  - [  -0.0000563282192161,  0.0000002721790224, -0.0500238053500652 ]
  - [   0.0000201200600713,  0.0001088443168555, -0.0499911196529865 ]
  - [  -0.0000248013529927,  0.0000022717329102, -0.0500023961067200 ]
  - [   0.0001889734994620, -0.0001774804550223, -0.0500348508358002 ]
  - [  -0.0003272318281233,  0.0010930262506008,  0.0499144382774830 ]
  - [  -0.0000727800434106,  0.0000295042991638,  0.0502650663256645 ]
  - [  -0.0001004580408335, -0.0000464357435703,  0.0502218231558800 ]
  - [   0.0044830394908786, -0.0027714015450329,  0.0509884096682072 ]
  - [   0.0026395465247333,  0.0017194917891175,  0.0488190166652203 ]
  - [  -0.0000110632972792, -0.0000041709281504,  0.0500100888311863 ]
  - [   0.0000046661589295,  0.0000095032155514,  0.0500137098133564 ]
  - [  -0.0000222169328481,  0.0000175461173058,  0.0502430349588394 ]
  - [  -0.0000025376211852, -0.0000045280903578,  0.0500059127807617 ]
  - [  -0.0001206613087561,  0.0000770448241383,  0.0500254109501839 ]
  - [  -0.0005494322394952,  0.0002879546955228,  0.0496897883713245 ]
  - [  -0.0002333877782803, -0.0001081223599613,  0.0500626415014267 ]
  - [   0.0001111030578613, -0.0001353137195110,  0.0501020997762680 ]
  - [  -0.0000228509306908,  0.0000554136931896,  0.0499498993158340 ]
  - [  -0.0000031478703022, -0.0000045169144869,  0.0500157140195370 ]
  - [   0.0000089153181762,  0.0000053779222071,  0.0500199310481548 ]
  - [  -0.0000499144662172, -0.0001880440395325,  0.0498748123645782 ]
  - [   0.0000018042046577, -0.0000036810524762,  0.0500122979283333 ]
  - [   0.0000486072567583,  0.0000378072727472,  0.0499656349420547 ]
  - [  -0.0000399655873480,  0.0000229482538998,  0.0499680303037167 ]
  - [  -0.0000117777890409, -0.0000089656095952,  0.0500017702579498 ]
  - [   0.0000453117536381,  0.0000020191073418,  0.0500048846006393 ]
  - [  -0.0000230352161452, -0.0000413290690631,  0.0499265901744366 ]
  - [  -0.0000062630278990,  0.0000022652093321,  0.0500118471682072 ]
  - [  -0.0000043101608753,  0.0000019529834390,  0.0500094741582870 ]
  - [   0.0000016195699573, -0.0000167035032064,  0.0499849729239941 ]
  - [  -0.0000006016343832, -0.0000040784943849,  0.0500145666301250 ]
  - [  -0.0001571610337123, -0.0000742617994547,  0.0499712377786636 ]
  - [  -0.0001011798740365,  0.0000507719814777,  0.0500808954238892 ]
  - [  -0.0004947455599904, -0.0002830047160387,  0.0496255084872246 ]
  - [  -0.0000891716917977, -0.0000398452393711,  0.0499012209475040 ]
  - [   0.0000361204147339,  0.0001113642938435,  0.0500439852476120 ]
  - [  -0.0000396542018279,  0.0000071753747761,  0.0500069633126259 ]
  - [  -0.0000068838708103,  0.0000186311081052,  0.0499986596405506 ]
  - [  -0.0000088564120233,  0.0002302853390574,  0.0498507395386696 ]
  - [   0.0000061269383878, -0.0000277273356915,  0.0500141978263855 ]
  - [   0.0007596698123962,  0.0003176378086209, -0.0005568489432335 ]
  - [   0.0009788505267352, -0.0004481351643335, -0.0003692992031574 ]
  - [   0.0000779677066021, -0.0000055648265516, -0.0000040866434574 ]
  - [  -0.0000161703283084, -0.0000128570682136, -0.0002140030264854 ]
  - [   0.0002064736763714,  0.0000996550952550, -0.0004504323005676 ]
  - [  -0.0001498811034253, -0.0000634376847302,  0.0001479610800743 ]
  - [  -0.0000387916807085,  0.0000782772622188, -0.0000317804515362 ]
  - [   0.0000162663636729, -0.0000380091951229,  0.0000166185200214 ]
  - [   0.0000088324295575,  0.0000404775491916, -0.0000241696834564 ]
  - [   0.0039111077785492,  0.0021054442040622, -0.0007953289896250 ]
  - [   0.0075081083923578, -0.0042059207335114,  0.0025728028267622 ]
  - [   0.0000841725268401,  0.0000173373828147, -0.0000177193433046 ]
  - [   0.0000096567964647, -0.0000060280626712,  0.0000282377004623 ]
  - [   0.0002450639731251,  0.0019916538149118,  0.0008523166179657 ]
  - [   0.0000342164676113,  0.0000234056624322,  0.0000703930854797 ]
  - [  -0.0000044579810492, -0.0000115247130452,  0.0000482872128487 ]
  - [  -0.0000172023937921, -0.0000568054383621, -0.0000498984009027 ]
  - [   0.0000155312282004,  0.0000417908267991,  0.0000157412141562 ]
  - [  -0.0000595005185460, -0.0000282517466985, -0.0001195743680000 ]
  - [   0.0000007627711511, -0.0000076251590144,  0.0010973364114761 ]
  - [   0.0000171865103766,  0.0000175566656253,  0.0000105835497379 ]
  - [   0.0000242476962740, -0.0000074683939602,  0.0000313930213451 ]
  - [  -0.0000130423495648,  0.0000346410997736,  0.0004886612296104 ]
  - [  -0.0000593251024839, -0.0000433526038250, -0.0000865012407303 ]
  - [   0.0000149798861457,  0.0000494627129228, -0.0000268779695034 ]
  - [  -0.0000213649400393, -0.0000228060544032,  0.0000293441116810 ]
  - [   0.0000103324700831,  0.0000061723967519, -0.0000084973871708 ]
  - [   0.0000054044649005,  0.0000215843319893,  0.0005357675254345 ]
  - [  -0.0000227903947234, -0.0000096037983894,  0.0000132434070110 ]
  - [   0.0000369260087609, -0.0000069532543421,  0.0000128038227558 ]
  - [   0.0000366782769561, -0.0000292975455523,  0.0000073872506618 ]
  - [  -0.0000353949144483, -0.0000156797468662,  0.0002725385129452 ]
  - [  -0.0000012191012502,  0.0000073984265327,  0.0000134930014610 ]
  - [  -0.0000128522515297,  0.0000232364982367,  0.0000095441937447 ]
  - [   0.0000131055712700, -0.0000123847275972,  0.0000095777213573 ]
  - [   0.0000026002526283,  0.0000211261212826,  0.0000152923166752 ]
- atom:    1
  displacement:
    [  -0.0075538333963739, -0.0000000024708634, -0.0065528315268913 ]
  forces:
  - [   0.0186000410467386,  0.0000796110834926, -0.0430016741156578 ]
  - [   0.0002524403389543,  0.0001324845943600, -0.0500722303986549 ]
  - [   0.0001817233569454,  0.0000339346006513, -0.0499907992780209 ]
  - [  -0.0001932183076860, -0.0001479692291468, -0.0500931441783905 ]
  - [  -0.0000106642637547,  0.0001238577533513, -0.0499696061015129 ]
  - [   0.0000229831402976,  0.0000001350417733, -0.0500115938484669 ]
  - [  -0.0001572179608047, -0.0003028034989256, -0.0501321554183960 ]
  - [   0.0000225575640798,  0.0000004428461295, -0.0500107593834400 ]
  - [  -0.0000502539332956,  0.0001630706537981, -0.0499269738793373 ]
  - [   0.0001860728516476,  0.0000025720801204, -0.0524439625442028 ]
  - [  -0.0000359900077456,  0.0001293048262596, -0.0500240959227085 ]
  - [   0.0000081515754573, -0.0000570022966713, -0.0500036031007767 ]
  - [  -0.0001246315223398,  0.0000167961698025, -0.0499171428382397 ]
  - [  -0.0000842151712277, -0.0000892197713256, -0.0501119457185268 ]
  - [   0.0000245867413469,  0.0000013145618141, -0.0500263608992100 ]
  - [  -0.0001370769459754, -0.0001476629695389, -0.0499279871582985 ]
  - [   0.0000552288256586,  0.0000008455594980, -0.0500036291778088 ]
  - [  -0.0000530635006726,  0.0001545407867525, -0.0501027666032314 ]
  - [   0.0000103512174974,  0.0000007140915841, -0.0493528768420219 ]
  - [   0.0000079131041275,  0.0000059450976551, -0.0500136911869049 ]
  - [   0.0000111418194138, -0.0000207494013011, -0.0500189661979675 ]
  - [   0.0000096147314252,  0.0000102526973933, -0.0500097535550594 ]
  - [  -0.0000066405582402, -0.0000067797955126, -0.0500231236219406 ]
  - [  -0.0000027490268621, -0.0000001981388777, -0.0500135347247124 ]
  - [   0.0000068000517786, -0.0000111843037303, -0.0500068590044975 ]
  - [  -0.0000032077077776,  0.0000012927815760, -0.0500134229660034 ]
  - [  -0.0000043318141252,  0.0000248197720794, -0.0500253550708294 ]
  - [   0.0001961494272109,  0.0000027865171432, -0.0524844862520695 ]
  - [  -0.0000066226675699,  0.0000142445787787, -0.0499887615442276 ]
  - [  -0.0000224599316425, -0.0001990429591388, -0.0500410124659538 ]
  - [  -0.0000200759805011,  0.0001028291881084, -0.0500634461641312 ]
  - [  -0.0001732203527354,  0.0000059707090259, -0.0499642156064510 ]
  - [   0.0000539582688361,  0.0000004780013114, -0.0500033944845200 ]
  - [  -0.0000208641868085, -0.0001037711044773, -0.0500379838049412 ]
  - [   0.0000244621187449,  0.0000022506615096, -0.0500269830226898 ]
  - [  -0.0001924890093505,  0.0001918092166306, -0.0499904789030552 ]
  - [   0.0003239228390157, -0.0010752081871033,  0.0501160770654678 ]
  - [   0.0000694240734447, -0.0000279061496258,  0.0497686713933945 ]
  - [   0.0001064293319359,  0.0000481307506561,  0.0497996136546135 ]
  - [  -0.0045564868487418,  0.0028235407080501,  0.0490250587463379 ]
  - [  -0.0026429486460984, -0.0017062472179532,  0.0511856041848660 ]
  - [   0.0000102272024378,  0.0000033373944461,  0.0500183477997780 ]
  - [  -0.0000049346126616, -0.0000080969184637,  0.0500146225094795 ]
  - [   0.0000209375284612, -0.0000195316970348,  0.0497838668525219 ]
  - [   0.0000011660158634,  0.0000055842101574,  0.0500218793749809 ]
  - [   0.0001234280352946, -0.0000776066444814,  0.0500012226402760 ]
  - [   0.0005661823088303, -0.0002999480348080,  0.0503467805683613 ]
  - [   0.0002300685591763,  0.0001031134743243,  0.0499676465988159 ]
  - [  -0.0001084804534912,  0.0001321919262409,  0.0499236397445202 ]
  - [   0.0000256337225437, -0.0000577680766582,  0.0500801689922810 ]
  - [  -0.0000004991889000,  0.0000034719705582,  0.0500129312276840 ]
  - [  -0.0000103437341750, -0.0000072608236223,  0.0500092282891273 ]
  - [   0.0000477817375213,  0.0001887204125524,  0.0501557700335979 ]
  - [  -0.0000038929283619,  0.0000011001247913,  0.0500174015760422 ]
  - [  -0.0000485639138788, -0.0000404096208513,  0.0500603690743446 ]
  - [   0.0000389739725506, -0.0000252230092883,  0.0500592440366745 ]
  - [   0.0000089483673946,  0.0000053644180298,  0.0500257760286331 ]
  - [  -0.0000455089611933, -0.0000018097925931,  0.0500213354825974 ]
  - [   0.0000217180931941,  0.0000406135804951,  0.0500992722809315 ]
  - [   0.0000059941085055, -0.0000028312206268,  0.0500148162245750 ]
  - [   0.0000022258609533, -0.0000012600794435,  0.0500175878405571 ]
  - [  -0.0000026682391763,  0.0000169326085597,  0.0500426366925240 ]
  - [  -0.0000028212089092,  0.0000043967738748,  0.0500124730169773 ]
  - [   0.0001581878168508,  0.0000672023743391,  0.0500545129179955 ]
  - [   0.0001009567058645, -0.0000557936728001,  0.0499463453888893 ]
  - [   0.0005067359888926,  0.0002848822623491,  0.0504121556878090 ]
  - [   0.0000847262563184,  0.0000418317504227,  0.0501259937882423 ]