# Thermal properties / unit cell (natom)

unit:
  temperature:   K
  free_energy:   kJ/mol
  entropy:       J/K/mol
  heat_capacity: J/K/mol

natom: 3    
cutoff_frequency: 0.00000
num_modes: 185625
num_integrated_modes: 185622

zero_point_energy:      11.1122068

thermal_properties:
- temperature:         0.0000000
  free_energy:        11.1122068
  entropy:             0.0000000
  heat_capacity:       0.0000000
  energy:             11.1122068

- temperature:        10.0000000
  free_energy:        11.1113121
  entropy:             0.3221424
  heat_capacity:       0.8723915
  energy:             11.1145335

- temperature:        20.0000000
  free_energy:        11.1006768
  entropy:             2.1158595
  heat_capacity:       5.3742450
  energy:             11.1429940

- temperature:        30.0000000
  free_energy:        11.0640057
  entropy:             5.3834902
  heat_capacity:      11.0621419
  energy:             11.2255104

- temperature:        40.0000000
  free_energy:        10.9910105
  entropy:             9.2694986
  heat_capacity:      16.0726064
  energy:             11.3617904

- temperature:        50.0000000
  free_energy:        10.8780248
  entropy:            13.3418239
  heat_capacity:      20.5292592
  energy:             11.5451160

- temperature:        60.0000000
  free_energy:        10.7240366
  entropy:            17.4581897
  heat_capacity:      24.7248048
  energy:             11.7715280

- temperature:        70.0000000
  free_energy:        10.5288595
  entropy:            21.5756191
  heat_capacity:      28.7784058
  energy:             12.0391529

- temperature:        80.0000000
  free_energy:        10.2925836
  entropy:            25.6752919
  heat_capacity:      32.6839271
  energy:             12.3466069

- temperature:        90.0000000
  free_energy:        10.0154664
  entropy:            29.7411386
  heat_capacity:      36.3908612
  energy:             12.6921688

- temperature:       100.0000000
  free_energy:         9.6979285
  entropy:            33.7566955
  heat_capacity:      39.8506515
  energy:             13.0735981

- temperature:       110.0000000
  free_energy:         9.3405522
  entropy:            37.7063953
  heat_capacity:      43.0332777
  energy:             13.4882557

- temperature:       120.0000000
  free_energy:         8.9440646
  entropy:            41.5769934
  heat_capacity:      45.9284785
  energy:             13.9333038

- temperature:       130.0000000
  free_energy:         8.5093105
  entropy:            45.3582500
  heat_capacity:      48.5413245
  energy:             14.4058830

- temperature:       140.0000000
  free_energy:         8.0372217
  entropy:            49.0429790
  heat_capacity:      50.8868775
  energy:             14.9032388

- temperature:       150.0000000
  free_energy:         7.5287878
  entropy:            52.6267345
  heat_capacity:      52.9857195
  energy:             15.4227980

- temperature:       160.0000000
  free_energy:         6.9850310
  entropy:            56.1073505
  heat_capacity:      54.8607466
  energy:             15.9622071

- temperature:       170.0000000
  free_energy:         6.4069859
  entropy:            59.4844595
  heat_capacity:      56.5350870
  energy:             16.5193441

- temperature:       180.0000000
  free_energy:         5.7956836
  entropy:            62.7590565
  heat_capacity:      58.0308639
  energy:             17.0923138

- temperature:       190.0000000
  free_energy:         5.1521400
  entropy:            65.9331294
  heat_capacity:      59.3685402
  energy:             17.6794345

- temperature:       200.0000000
  free_energy:         4.4773472
  entropy:            69.0093616
  heat_capacity:      60.5666362
  energy:             18.2792196

- temperature:       210.0000000
  free_energy:         3.7722684
  entropy:            71.9908995
  heat_capacity:      61.6416759
  energy:             18.8903573

- temperature:       220.0000000
  free_energy:         3.0378335
  entropy:            74.8811741
  heat_capacity:      62.6082638
  energy:             19.5116918

- temperature:       230.0000000
  free_energy:         2.2749372
  entropy:            77.6837687
  heat_capacity:      63.4792285
  energy:             20.1422040

- temperature:       240.0000000
  free_energy:         1.4844382
  entropy:            80.4023206
  heat_capacity:      64.2657958
  energy:             20.7809952

- temperature:       250.0000000
  free_energy:         0.6671589
  entropy:            83.0404502
  heat_capacity:      64.9777679
  energy:             21.4272714

- temperature:       260.0000000
  free_energy:        -0.1761146
  entropy:            85.6017117
  heat_capacity:      65.6236955
  energy:             22.0803305

- temperature:       270.0000000
  free_energy:        -1.0446307
  entropy:            88.0895586
  heat_capacity:      66.2110373
  energy:             22.7395501

- temperature:       280.0000000
  free_energy:        -1.9376721
  entropy:            90.5073210
  heat_capacity:      66.7463029
  energy:             23.4043778

- temperature:       290.0000000
  free_energy:        -2.8545541
  entropy:            92.8581924
  heat_capacity:      67.2351795
  energy:             24.0743216

- temperature:       300.0000000
  free_energy:        -3.7946232
  entropy:            95.1452218
  heat_capacity:      67.6826431
  energy:             24.7489434

- temperature:       310.0000000
  free_energy:        -4.7572555
  entropy:            97.3713114
  heat_capacity:      68.0930541
  energy:             25.4278511

- temperature:       320.0000000
  free_energy:        -5.7418555
  entropy:            99.5392163
  heat_capacity:      68.4702406
  energy:             26.1106938

- temperature:       330.0000000
  free_energy:        -6.7478546
  entropy:           101.6515483
  heat_capacity:      68.8175700
  energy:             26.7971564

- temperature:       340.0000000
  free_energy:        -7.7747095
  entropy:           103.7107795
  heat_capacity:      69.1380104
  energy:             27.4869556

- temperature:       350.0000000
  free_energy:        -8.8219010
  entropy:           105.7192477
  heat_capacity:      69.4341836
  energy:             28.1798357

- temperature:       360.0000000
  free_energy:        -9.8889326
  entropy:           107.6791630
  heat_capacity:      69.7084100
  energy:             28.8755661

- temperature:       370.0000000
  free_energy:       -10.9753293
  entropy:           109.5926136
  heat_capacity:      69.9627478
  energy:             29.5739377

- temperature:       380.0000000
  free_energy:       -12.0806366
  entropy:           111.4615722
  heat_capacity:      70.1990266
  energy:             30.2747609

- temperature:       390.0000000
  free_energy:       -13.2044187
  entropy:           113.2879030
  heat_capacity:      70.4188761
  energy:             30.9778635

- temperature:       400.0000000
  free_energy:       -14.3462584
  entropy:           115.0733673
  heat_capacity:      70.6237508
  energy:             31.6830885

- temperature:       410.0000000
  free_energy:       -15.5057554
  entropy:           116.8196300
  heat_capacity:      70.8149517
  energy:             32.3902929

- temperature:       420.0000000
  free_energy:       -16.6825256
  entropy:           118.5282654
  heat_capacity:      70.9936446
  energy:             33.0993459

- temperature:       430.0000000
  free_energy:       -17.8762002
  entropy:           120.2007625
  heat_capacity:      71.1608765
  energy:             33.8101276

- temperature:       440.0000000
  free_energy:       -19.0864251
  entropy:           121.8385305
  heat_capacity:      71.3175891
  energy:             34.5225283

- temperature:       450.0000000
  free_energy:       -20.3128595
  entropy:           123.4429038
  heat_capacity:      71.4646313
  energy:             35.2364472

- temperature:       460.0000000
  free_energy:       -21.5551761
  entropy:           125.0151464
  heat_capacity:      71.6027695
  energy:             35.9517913

- temperature:       470.0000000
  free_energy:       -22.8130594
  entropy:           126.5564565
  heat_capacity:      71.7326972
  energy:             36.6684752

- temperature:       480.0000000
  free_energy:       -24.0862059
  entropy:           128.0679705
  heat_capacity:      71.8550425
  energy:             37.3864200

- temperature:       490.0000000
  free_energy:       -25.3743231
  entropy:           129.5507668
  heat_capacity:      71.9703757
  energy:             38.1055527

- temperature:       500.0000000
  free_energy:       -26.6771289
  entropy:           131.0058695
  heat_capacity:      72.0792152
  energy:             38.8258058

- temperature:       510.0000000
  free_energy:       -27.9943514
  entropy:           132.4342516
  heat_capacity:      72.1820331
  energy:             39.5471169

- temperature:       520.0000000
  free_energy:       -29.3257280
  entropy:           133.8368381
  heat_capacity:      72.2792598
  energy:             40.2694279

- temperature:       530.0000000
  free_energy:       -30.6710051
  entropy:           135.2145092
  heat_capacity:      72.3712886
  energy:             40.9926848

- temperature:       540.0000000
  free_energy:       -32.0299379
  entropy:           136.5681026
  heat_capacity:      72.4584792
  energy:             41.7168375

- temperature:       550.0000000
  free_energy:       -33.4022896
  entropy:           137.8984162
  heat_capacity:      72.5411610
  energy:             42.4418393

- temperature:       560.0000000
  free_energy:       -34.7878312
  entropy:           139.2062105
  heat_capacity:      72.6196363
  energy:             43.1676467

- temperature:       570.0000000
  free_energy:       -36.1863411
  entropy:           140.4922107
  heat_capacity:      72.6941827
  energy:             43.8942190

- temperature:       580.0000000
  free_energy:       -37.5976050
  entropy:           141.7571089
  heat_capacity:      72.7650555
  energy:             44.6215181

- temperature:       590.0000000
  free_energy:       -39.0214152
  entropy:           143.0015658
  heat_capacity:      72.8324898
  energy:             45.3495086

- temperature:       600.0000000
  free_energy:       -40.4575703
  entropy:           144.2262125
  heat_capacity:      72.8967023
  energy:             46.0781572

- temperature:       610.0000000
  free_energy:       -41.9058754
  entropy:           145.4316525
  heat_capacity:      72.9578934
  energy:             46.8074326

- temperature:       620.0000000
  free_energy:       -43.3661413
  entropy:           146.6184627
  heat_capacity:      73.0162478
  energy:             47.5373056

- temperature:       630.0000000
  free_energy:       -44.8381844
  entropy:           147.7871954
  heat_capacity:      73.0719369
  energy:             48.2677487

- temperature:       640.0000000
  free_energy:       -46.3218267
  entropy:           148.9383792
  heat_capacity:      73.1251190
  energy:             48.9987360

- temperature:       650.0000000
  free_energy:       -47.8168952
  entropy:           150.0725206
  heat_capacity:      73.1759414
  energy:             49.7302432

- temperature:       660.0000000
  free_energy:       -49.3232219
  entropy:           151.1901050
  heat_capacity:      73.2245404
  energy:             50.4622474

- temperature:       670.0000000
  free_energy:       -50.8406436
  entropy:           152.2915980
  heat_capacity:      73.2710430
  energy:             51.1947270

- temperature:       680.0000000
  free_energy:       -52.3690017
  entropy:           153.3774462
  heat_capacity:      73.3155671
  energy:             51.9276617

- temperature:       690.0000000
  free_energy:       -53.9081419
  entropy:           154.4480782
  heat_capacity:      73.3582226
  energy:             52.6610321

- temperature:       700.0000000
  free_energy:       -55.4579139
  entropy:           155.5039060
  heat_capacity:      73.3991118
  energy:             53.3948202

- temperature:       710.0000000
  free_energy:       -57.0181719
  entropy:           156.5453250
  heat_capacity:      73.4383305
  energy:             54.1290088

- temperature:       720.0000000
  free_energy:       -58.5887737
  entropy:           157.5727156
  heat_capacity:      73.4759676
  energy:             54.8635816

- temperature:       730.0000000
  free_energy:       -60.1695807
  entropy:           158.5864437
  heat_capacity:      73.5121067
  energy:             55.5985232

- temperature:       740.0000000
  free_energy:       -61.7604582
  entropy:           159.5868610
  heat_capacity:      73.5468256
  energy:             56.3338190

- temperature:       750.0000000
  free_energy:       -63.3612747
  entropy:           160.5743065
  heat_capacity:      73.5801974
  energy:             57.0694552

- temperature:       760.0000000
  free_energy:       -64.9719022
  entropy:           161.5491064
  heat_capacity:      73.6122905
  energy:             57.8054187

- temperature:       770.0000000
  free_energy:       -66.5922157
  entropy:           162.5115749
  heat_capacity:      73.6431690
  energy:             58.5416969

- temperature:       780.0000000
  free_energy:       -68.2220936
  entropy:           163.4620151
  heat_capacity:      73.6728931
  energy:             59.2782782

- temperature:       790.0000000
  free_energy:       -69.8614169
  entropy:           164.4007191
  heat_capacity:      73.7015194
  energy:             60.0151511

- temperature:       800.0000000
  free_energy:       -71.5100698
  entropy:           165.3279686
  heat_capacity:      73.7291009
  energy:             60.7523051

- temperature:       810.0000000
  free_energy:       -73.1679390
  entropy:           166.2440356
  heat_capacity:      73.7556876
  energy:             61.4897298

- temperature:       820.0000000
  free_energy:       -74.8349141
  entropy:           167.1491827
  heat_capacity:      73.7813266
  energy:             62.2274157

- temperature:       830.0000000
  free_energy:       -76.5108871
  entropy:           168.0436632
  heat_capacity:      73.8060622
  energy:             62.9653534

- temperature:       840.0000000
  free_energy:       -78.1957526
  entropy:           168.9277222
  heat_capacity:      73.8299361
  energy:             63.7035341

- temperature:       850.0000000
  free_energy:       -79.8894076
  entropy:           169.8015964
  heat_capacity:      73.8529876
  energy:             64.4419494

- temperature:       860.0000000
  free_energy:       -81.5917514
  entropy:           170.6655146
  heat_capacity:      73.8752540
  energy:             65.1805912

- temperature:       870.0000000
  free_energy:       -83.3026854
  entropy:           171.5196981
  heat_capacity:      73.8967704
  energy:             65.9194519

- temperature:       880.0000000
  free_energy:       -85.0221136
  entropy:           172.3643611
  heat_capacity:      73.9175699
  energy:             66.6585242

- temperature:       890.0000000
  free_energy:       -86.7499416
  entropy:           173.1997109
  heat_capacity:      73.9376839
  energy:             67.3978010

- temperature:       900.0000000
  free_energy:       -88.4860774
  entropy:           174.0259479
  heat_capacity:      73.9571420
  energy:             68.1372757

- temperature:       910.0000000
  free_energy:       -90.2304309
  entropy:           174.8432666
  heat_capacity:      73.9759724
  energy:             68.8769418

- temperature:       920.0000000
  free_energy:       -91.9829137
  entropy:           175.6518552
  heat_capacity:      73.9942017
  energy:             69.6167932

- temperature:       930.0000000
  free_energy:       -93.7434395
  entropy:           176.4518961
  heat_capacity:      74.0118550
  energy:             70.3568239

- temperature:       940.0000000
  free_energy:       -95.5119237
  entropy:           177.2435661
  heat_capacity:      74.0289563
  energy:             71.0970284

- temperature:       950.0000000
  free_energy:       -97.2882835
  entropy:           178.0270366
  heat_capacity:      74.0455283
  energy:             71.8374013

- temperature:       960.0000000
  free_energy:       -99.0724376
  entropy:           178.8024739
  heat_capacity:      74.0615926
  energy:             72.5779373

- temperature:       970.0000000
  free_energy:      -100.8643067
  entropy:           179.5700394
  heat_capacity:      74.0771695
  energy:             73.3186315

- temperature:       980.0000000
  free_energy:      -102.6638127
  entropy:           180.3298896
  heat_capacity:      74.0922786
  energy:             74.0594791

- temperature:       990.0000000
  free_energy:      -104.4708793
  entropy:           181.0821766
  heat_capacity:      74.1069383
  energy:             74.8004756

- temperature:      1000.0000000
  free_energy:      -106.2854315
  entropy:           181.8270480
  heat_capacity:      74.1211662
  energy:             75.5416164
