phonopy:
  version: "2.37.1"
  frequency_unit_conversion_factor: 15.633302
  symmetry_tolerance: 1.00000e-05

space_group:
  type: "P1"
  number: 1
  Hall_symbol: "P 1"

primitive_matrix:
- [  0.000000000000000,  1.000000000000000,  1.000000000000000 ]
- [ -1.000000000000000,  0.000000000000000,  0.000000000000000 ]
- [  0.000000000000000,  0.000000000000000,  1.000000000000000 ]

supercell_matrix:
- [   2,   0,   0 ]
- [   0,   3,   0 ]
- [   0,   0,   1 ]

primitive_cell:
  lattice:
  - [     1.825470825094412,    -4.009179139489925,     0.000000000000000 ] # a
  - [     5.313938965071289,     0.000000000000000,     0.000000000000000 ] # b
  - [     1.928142184984831,    -1.541729222714320,    12.197945869825624 ] # c
  points:
  - symbol: Li # 1
    coordinates: [  0.812290462033507,  0.144466449338533,  0.059897473122588 ]
    mass: 6.940000
  - symbol: Li # 2
    coordinates: [  0.816305134698134,  0.623686900985633,  0.571105779370544 ]
    mass: 6.940000
  - symbol: Li # 3
    coordinates: [  0.145170780797590,  0.312834125519330,  0.225865786079839 ]
    mass: 6.940000
  - symbol: Li # 4
    coordinates: [  0.812509784044222,  0.891923857652491,  0.311733206204648 ]
    mass: 6.940000
  - symbol: Li # 5
    coordinates: [  0.146257367026218,  0.798219686064078,  0.736842069706501 ]
    mass: 6.940000
  - symbol: Li # 6
    coordinates: [  0.478942111381349,  0.970492401957886,  0.900048479903826 ]
    mass: 6.940000
  - symbol: Sn # 7
    coordinates: [  0.813552167292387,  0.384480391227077,  0.816418097286820 ]
    mass: 118.710000
  - symbol: Sn # 8
    coordinates: [  0.470347264776336,  0.740443280651945,  0.147839708728133 ]
    mass: 118.710000
  - symbol: Sn # 9
    coordinates: [  0.154660703178392,  0.038907500998407,  0.479722472667796 ]
    mass: 118.710000
  - symbol: Sn # 10
    coordinates: [  0.486152400121233,  0.469878659356646,  0.386223448501372 ]
    mass: 118.710000
  - symbol: Sn # 11
    coordinates: [  0.482048223827966,  0.208165007241965,  0.655343848100568 ]
    mass: 118.710000
  - symbol: Sn # 12
    coordinates: [  0.141946873233082,  0.558973441430917,  0.985764958070442 ]
    mass: 118.710000
  reciprocal_lattice: # without 2pi
  - [     0.000000000000000,    -0.249427617277093,    -0.031525787260572 ] # a*
  - [     0.188184321756993,     0.085684619508241,    -0.018916598742269 ] # b*
  - [     0.000000000000000,    -0.000000000000000,     0.081981016367168 ] # c*

unit_cell:
  lattice:
  - [     5.313938965071288,     0.000000000000000,     0.000000000000000 ] # a
  - [    -1.825470825094412,     4.009179139489925,     0.000000000000000 ] # b
  - [    -3.385796780086458,    -1.541729222714321,    12.197945869825624 ] # c
  points:
  - symbol: Li # 1
    coordinates: [  0.204363922461121,  0.187709537966493,  0.059897473122588 ]
    mass: 6.940000
    reduced_to: 1
  - symbol: Li # 2
    coordinates: [  0.194792680356178,  0.183694865301866,  0.571105779370544 ]
    mass: 6.940000
    reduced_to: 2
  - symbol: Li # 3
    coordinates: [  0.538699911599169,  0.854829219202410,  0.225865786079839 ]
    mass: 6.940000
    reduced_to: 3
  - symbol: Li # 4
    coordinates: [  0.203657063857138,  0.187490215955778,  0.311733206204648 ]
    mass: 6.940000
    reduced_to: 4
  - symbol: Li # 5
    coordinates: [  0.535061755770579,  0.853742632973782,  0.736842069706501 ]
    mass: 6.940000
    reduced_to: 5
  - symbol: Li # 6
    coordinates: [  0.870540881861713,  0.521057888618651,  0.900048479903826 ]
    mass: 6.940000
    reduced_to: 6
  - symbol: Sn # 7
    coordinates: [  0.200898488513897,  0.186447832707613,  0.816418097286820 ]
    mass: 118.710000
    reduced_to: 7
  - symbol: Sn # 8
    coordinates: [  0.888282989380078,  0.529652735223664,  0.147839708728133 ]
    mass: 118.710000
    reduced_to: 8
  - symbol: Sn # 9
    coordinates: [  0.518629973666203,  0.845339296821608,  0.479722472667796 ]
    mass: 118.710000
    reduced_to: 9
  - symbol: Sn # 10
    coordinates: [  0.856102107858019,  0.513847599878767,  0.386223448501372 ]
    mass: 118.710000
    reduced_to: 10
  - symbol: Sn # 11
    coordinates: [  0.863508855342533,  0.517951776172034,  0.655343848100568 ]
    mass: 118.710000
    reduced_to: 11
  - symbol: Sn # 12
    coordinates: [  0.544738399501360,  0.858053126766918,  0.985764958070442 ]
    mass: 118.710000
    reduced_to: 12

supercell:
  lattice:
  - [    10.627877930142576,     0.000000000000000,     0.000000000000000 ] # a
  - [    -5.476412475283237,    12.027537418469775,     0.000000000000000 ] # b
  - [    -3.385796780086458,    -1.541729222714321,    12.197945869825624 ] # c
  points:
  - symbol: Li # 1
    coordinates: [  0.102181961230560,  0.062569845988831,  0.059897473122588 ]
    mass: 6.940000
    reduced_to: 1
  - symbol: Li # 2
    coordinates: [  0.602181961230560,  0.062569845988831,  0.059897473122588 ]
    mass: 6.940000
    reduced_to: 1
  - symbol: Li # 3
    coordinates: [  0.102181961230560,  0.395903179322164,  0.059897473122588 ]
    mass: 6.940000
    reduced_to: 1
  - symbol: Li # 4
    coordinates: [  0.602181961230560,  0.395903179322164,  0.059897473122588 ]
    mass: 6.940000
    reduced_to: 1
  - symbol: Li # 5
    coordinates: [  0.102181961230560,  0.729236512655497,  0.059897473122588 ]
    mass: 6.940000
    reduced_to: 1
  - symbol: Li # 6
    coordinates: [  0.602181961230560,  0.729236512655497,  0.059897473122588 ]
    mass: 6.940000
    reduced_to: 1
  - symbol: Li # 7
    coordinates: [  0.097396340178089,  0.061231621767289,  0.571105779370544 ]
    mass: 6.940000
    reduced_to: 7
  - symbol: Li # 8
    coordinates: [  0.597396340178089,  0.061231621767289,  0.571105779370544 ]
    mass: 6.940000
    reduced_to: 7
  - symbol: Li # 9
    coordinates: [  0.097396340178089,  0.394564955100622,  0.571105779370544 ]
    mass: 6.940000
    reduced_to: 7
  - symbol: Li # 10
    coordinates: [  0.597396340178089,  0.394564955100622,  0.571105779370544 ]
    mass: 6.940000
    reduced_to: 7
  - symbol: Li # 11
    coordinates: [  0.097396340178089,  0.727898288433955,  0.571105779370544 ]
    mass: 6.940000
    reduced_to: 7
  - symbol: Li # 12
    coordinates: [  0.597396340178089,  0.727898288433955,  0.571105779370544 ]
    mass: 6.940000
    reduced_to: 7
  - symbol: Li # 13
    coordinates: [  0.269349955799584,  0.284943073067470,  0.225865786079839 ]
    mass: 6.940000
    reduced_to: 13
  - symbol: Li # 14
    coordinates: [  0.769349955799584,  0.284943073067470,  0.225865786079839 ]
    mass: 6.940000
    reduced_to: 13
  - symbol: Li # 15
    coordinates: [  0.269349955799584,  0.618276406400803,  0.225865786079839 ]
    mass: 6.940000
    reduced_to: 13
  - symbol: Li # 16
    coordinates: [  0.769349955799584,  0.618276406400803,  0.225865786079839 ]
    mass: 6.940000
    reduced_to: 13
  - symbol: Li # 17
    coordinates: [  0.269349955799584,  0.951609739734137,  0.225865786079839 ]
    mass: 6.940000
    reduced_to: 13
  - symbol: Li # 18
    coordinates: [  0.769349955799584,  0.951609739734137,  0.225865786079839 ]
    mass: 6.940000
    reduced_to: 13
  - symbol: Li # 19
    coordinates: [  0.101828531928569,  0.062496738651926,  0.311733206204648 ]
    mass: 6.940000
    reduced_to: 19
  - symbol: Li # 20
    coordinates: [  0.601828531928569,  0.062496738651926,  0.311733206204648 ]
    mass: 6.940000
    reduced_to: 19
  - symbol: Li # 21
    coordinates: [  0.101828531928569,  0.395830071985259,  0.311733206204648 ]
    mass: 6.940000
    reduced_to: 19
  - symbol: Li # 22
    coordinates: [  0.601828531928569,  0.395830071985259,  0.311733206204648 ]
    mass: 6.940000
    reduced_to: 19
  - symbol: Li # 23
    coordinates: [  0.101828531928569,  0.729163405318593,  0.311733206204648 ]
    mass: 6.940000
    reduced_to: 19
  - symbol: Li # 24
    coordinates: [  0.601828531928569,  0.729163405318593,  0.311733206204648 ]
    mass: 6.940000
    reduced_to: 19
  - symbol: Li # 25
    coordinates: [  0.267530877885290,  0.284580877657927,  0.736842069706501 ]
    mass: 6.940000
    reduced_to: 25
  - symbol: Li # 26
    coordinates: [  0.767530877885290,  0.284580877657927,  0.736842069706501 ]
    mass: 6.940000
    reduced_to: 25
  - symbol: Li # 27
    coordinates: [  0.267530877885290,  0.617914210991261,  0.736842069706501 ]
    mass: 6.940000
    reduced_to: 25
  - symbol: Li # 28
    coordinates: [  0.767530877885290,  0.617914210991261,  0.736842069706501 ]
    mass: 6.940000
    reduced_to: 25
  - symbol: Li # 29
    coordinates: [  0.267530877885290,  0.951247544324594,  0.736842069706501 ]
    mass: 6.940000
    reduced_to: 25
  - symbol: Li # 30
    coordinates: [  0.767530877885290,  0.951247544324594,  0.736842069706501 ]
    mass: 6.940000
    reduced_to: 25
  - symbol: Li # 31
    coordinates: [  0.435270440930856,  0.173685962872884,  0.900048479903826 ]
    mass: 6.940000
    reduced_to: 31
  - symbol: Li # 32
    coordinates: [  0.935270440930856,  0.173685962872884,  0.900048479903826 ]
    mass: 6.940000
    reduced_to: 31
  - symbol: Li # 33
    coordinates: [  0.435270440930856,  0.507019296206217,  0.900048479903826 ]
    mass: 6.940000
    reduced_to: 31
  - symbol: Li # 34
    coordinates: [  0.935270440930856,  0.507019296206217,  0.900048479903826 ]
    mass: 6.940000
    reduced_to: 31
  - symbol: Li # 35
    coordinates: [  0.435270440930856,  0.840352629539550,  0.900048479903826 ]
    mass: 6.940000
    reduced_to: 31
  - symbol: Li # 36
    coordinates: [  0.935270440930856,  0.840352629539550,  0.900048479903826 ]
    mass: 6.940000
    reduced_to: 31
  - symbol: Sn # 37
    coordinates: [  0.100449244256949,  0.062149277569204,  0.816418097286820 ]
    mass: 118.710000
    reduced_to: 37
  - symbol: Sn # 38
    coordinates: [  0.600449244256949,  0.062149277569204,  0.816418097286820 ]
    mass: 118.710000
    reduced_to: 37
  - symbol: Sn # 39
    coordinates: [  0.100449244256949,  0.395482610902538,  0.816418097286820 ]
    mass: 118.710000
    reduced_to: 37
  - symbol: Sn # 40
    coordinates: [  0.600449244256949,  0.395482610902538,  0.816418097286820 ]
    mass: 118.710000
    reduced_to: 37
  - symbol: Sn # 41
    coordinates: [  0.100449244256949,  0.728815944235871,  0.816418097286820 ]
    mass: 118.710000
    reduced_to: 37
  - symbol: Sn # 42
    coordinates: [  0.600449244256949,  0.728815944235871,  0.816418097286820 ]
    mass: 118.710000
    reduced_to: 37
  - symbol: Sn # 43
    coordinates: [  0.444141494690039,  0.176550911741221,  0.147839708728133 ]
    mass: 118.710000
    reduced_to: 43
  - symbol: Sn # 44
    coordinates: [  0.944141494690039,  0.176550911741221,  0.147839708728133 ]
    mass: 118.710000
    reduced_to: 43
  - symbol: Sn # 45
    coordinates: [  0.444141494690039,  0.509884245074555,  0.147839708728133 ]
    mass: 118.710000
    reduced_to: 43
  - symbol: Sn # 46
    coordinates: [  0.944141494690039,  0.509884245074555,  0.147839708728133 ]
    mass: 118.710000
    reduced_to: 43
  - symbol: Sn # 47
    coordinates: [  0.444141494690039,  0.843217578407888,  0.147839708728133 ]
    mass: 118.710000
    reduced_to: 43
  - symbol: Sn # 48
    coordinates: [  0.944141494690039,  0.843217578407888,  0.147839708728133 ]
    mass: 118.710000
    reduced_to: 43
  - symbol: Sn # 49
    coordinates: [  0.259314986833102,  0.281779765607203,  0.479722472667796 ]
    mass: 118.710000
    reduced_to: 49
  - symbol: Sn # 50
    coordinates: [  0.759314986833102,  0.281779765607203,  0.479722472667796 ]
    mass: 118.710000
    reduced_to: 49
  - symbol: Sn # 51
    coordinates: [  0.259314986833102,  0.615113098940536,  0.479722472667796 ]
    mass: 118.710000
    reduced_to: 49
  - symbol: Sn # 52
    coordinates: [  0.759314986833102,  0.615113098940536,  0.479722472667796 ]
    mass: 118.710000
    reduced_to: 49
  - symbol: Sn # 53
    coordinates: [  0.259314986833102,  0.948446432273869,  0.479722472667796 ]
    mass: 118.710000
    reduced_to: 49
  - symbol: Sn # 54
    coordinates: [  0.759314986833102,  0.948446432273869,  0.479722472667796 ]
    mass: 118.710000
    reduced_to: 49
  - symbol: Sn # 55
    coordinates: [  0.428051053929009,  0.171282533292922,  0.386223448501372 ]
    mass: 118.710000
    reduced_to: 55
  - symbol: Sn # 56
    coordinates: [  0.928051053929009,  0.171282533292922,  0.386223448501372 ]
    mass: 118.710000
    reduced_to: 55
  - symbol: Sn # 57
    coordinates: [  0.428051053929009,  0.504615866626256,  0.386223448501372 ]
    mass: 118.710000
    reduced_to: 55
  - symbol: Sn # 58
    coordinates: [  0.928051053929009,  0.504615866626256,  0.386223448501372 ]
    mass: 118.710000
    reduced_to: 55
  - symbol: Sn # 59
    coordinates: [  0.428051053929009,  0.837949199959589,  0.386223448501372 ]
    mass: 118.710000
    reduced_to: 55
  - symbol: Sn # 60
    coordinates: [  0.928051053929009,  0.837949199959589,  0.386223448501372 ]
    mass: 118.710000
    reduced_to: 55
  - symbol: Sn # 61
    coordinates: [  0.431754427671267,  0.172650592057345,  0.655343848100568 ]
    mass: 118.710000
    reduced_to: 61
  - symbol: Sn # 62
    coordinates: [  0.931754427671267,  0.172650592057345,  0.655343848100568 ]
    mass: 118.710000
    reduced_to: 61
  - symbol: Sn # 63
    coordinates: [  0.431754427671267,  0.505983925390678,  0.655343848100568 ]
    mass: 118.710000
    reduced_to: 61
  - symbol: Sn # 64
    coordinates: [  0.931754427671267,  0.505983925390678,  0.655343848100568 ]
    mass: 118.710000
    reduced_to: 61
  - symbol: Sn # 65
    coordinates: [  0.431754427671267,  0.839317258724011,  0.655343848100568 ]
    mass: 118.710000
    reduced_to: 61
  - symbol: Sn # 66
    coordinates: [  0.931754427671267,  0.839317258724011,  0.655343848100568 ]
    mass: 118.710000
    reduced_to: 61
  - symbol: Sn # 67
    coordinates: [  0.272369199750680,  0.286017708922306,  0.985764958070442 ]
    mass: 118.710000
    reduced_to: 67
  - symbol: Sn # 68
    coordinates: [  0.772369199750680,  0.286017708922306,  0.985764958070442 ]
    mass: 118.710000
    reduced_to: 67
  - symbol: Sn # 69
    coordinates: [  0.272369199750680,  0.619351042255639,  0.985764958070442 ]
    mass: 118.710000
    reduced_to: 67
  - symbol: Sn # 70
    coordinates: [  0.772369199750680,  0.619351042255639,  0.985764958070442 ]
    mass: 118.710000
    reduced_to: 67
  - symbol: Sn # 71
    coordinates: [  0.272369199750680,  0.952684375588973,  0.985764958070442 ]
    mass: 118.710000
    reduced_to: 67
  - symbol: Sn # 72
    coordinates: [  0.772369199750680,  0.952684375588973,  0.985764958070442 ]
    mass: 118.710000
    reduced_to: 67

displacements:
- atom:    1
  displacement:
    [   0.0100000000000000,  0.0000000000000000,  0.0000000000000000 ]
  forces:
  - [  -0.0013927100226283,  0.0067670154385269,  0.0099188843742013 ]
  - [   0.0178689491003752,  0.0088136736303568,  0.0072863800451159 ]
  - [   0.0183053221553564,  0.0088191200047731,  0.0074198851361871 ]
  - [   0.0183623787015676,  0.0086390310898423,  0.0073224324733019 ]
  - [   0.0183055605739355,  0.0084695396944880,  0.0073618367314339 ]
  - [   0.0183595921844244,  0.0085224620997906,  0.0073848832398653 ]
  - [  -0.0183944869786501, -0.0097028575837612,  0.0118685513734818 ]
  - [  -0.0182713940739632, -0.0096377655863762,  0.0115640871226788 ]
  - [  -0.0182956382632256, -0.0096684806048870,  0.0115379653871059 ]
  - [  -0.0182840451598167, -0.0096405837684870,  0.0115412287414074 ]
  - [  -0.0183019023388624, -0.0096354894340038,  0.0115413479506969 ]
  - [  -0.0182900447398424, -0.0096496697515249,  0.0115557126700878 ]
  - [   0.0188845098018646,  0.0096026007086039, -0.0225327741354704 ]
  - [   0.0174205750226974,  0.0096514914184809, -0.0224539954215288 ]
  - [   0.0191575288772583,  0.0096303205937147, -0.0224767699837685 ]
  - [   0.0190635249018669,  0.0093561131507158, -0.0223537459969521 ]
  - [   0.0199617408216000,  0.0088904760777950, -0.0214057937264442 ]
  - [   0.0190700627863407,  0.0097164250910282, -0.0224366411566734 ]
  - [  -0.0206840522587299, -0.0087583065032959, -0.0064776875078678 ]
  - [  -0.0208751112222672, -0.0087176151573658, -0.0059538353234529 ]
  - [  -0.0208149366080761, -0.0088998470455408, -0.0060863588005304 ]
  - [  -0.0208726711571217, -0.0088013168424368, -0.0059175379574299 ]
  - [  -0.0209944155067205, -0.0088075147941709, -0.0059811118990183 ]
  - [  -0.0209614560008049, -0.0088400393724442, -0.0059360396116972 ]
  - [  -0.0064450390636921, -0.0035907169803977,  0.0110950842499733 ]
  - [  -0.0065811094827950, -0.0033471905626357,  0.0108336284756660 ]
  - [  -0.0064176321029663, -0.0035181413404644,  0.0110398083925247 ]
  - [  -0.0064437706023455, -0.0035073552280664,  0.0110167348757386 ]
  - [  -0.0064740171656013, -0.0035658893175423,  0.0112762618809938 ]
  - [  -0.0065124463289976, -0.0036482317373157,  0.0112635120749474 ]
  - [  -0.0068620555102825, -0.0028826203197241,  0.0130640007555485 ]
  - [  -0.0056207552552223, -0.0037537468597293,  0.0137170962989330 ]
  - [  -0.0066817393526435, -0.0030395439825952,  0.0130349472165108 ]
  - [  -0.0065874070860445, -0.0027842912822962,  0.0129032339900732 ]
  - [  -0.0083714099600911, -0.0027786116115749,  0.0129207205027342 ]
  - [  -0.0069225048646331, -0.0026223892346025,  0.0127632459625602 ]
  - [   0.0069174021482468,  0.0029828022234142,  0.0060746613889933 ]
  - [   0.0060826130211353,  0.0027618110179901,  0.0084822271019220 ]
  - [   0.0060006738640368,  0.0027250158600509,  0.0085673294961452 ]
  - [   0.0061298534274101,  0.0027250307612121,  0.0085614975541830 ]
  - [   0.0059792357496917,  0.0027669444680214,  0.0085225924849510 ]
  - [   0.0059712752699852,  0.0028365068137646,  0.0085901506245136 ]
  - [   0.0266348570585251,  0.0125051112845540, -0.0041861850768328 ]
  - [   0.0286427438259125,  0.0088151600211859, -0.0067165568470955 ]
  - [   0.0235931351780891,  0.0112625844776630, -0.0051346309483051 ]
  - [   0.0236756019294262,  0.0112866433337331, -0.0050685461610556 ]
  - [   0.0236503258347511,  0.0114142140373588, -0.0051194522529840 ]
  - [   0.0241046957671642,  0.0135457441210747, -0.0057899989187717 ]
  - [  -0.0182279832661152, -0.0086269751191139, -0.0033567361533642 ]
  - [  -0.0181167870759964, -0.0086355805397034, -0.0033043585717678 ]
  - [  -0.0181589089334011, -0.0086539350450039, -0.0033412277698517 ]
  - [  -0.0181433446705341, -0.0086397882550955, -0.0033007189631462 ]
  - [  -0.0181274972856045, -0.0086692124605179, -0.0033260583877563 ]
  - [  -0.0181285180151463, -0.0086005311459303, -0.0033650100231171 ]
  - [  -0.0391174219548702, -0.0176905430853367, -0.0031887441873550 ]
  - [  -0.0392731316387653, -0.0176338311284781, -0.0030701942741871 ]
  - [  -0.0391794443130493, -0.0177089814096689, -0.0032773502171040 ]
  - [  -0.0391114763915539, -0.0176614895462990, -0.0032764784991741 ]
  - [  -0.0393451862037182, -0.0175762716680765, -0.0033994838595390 ]
  - [  -0.0391453430056572, -0.0177735984325409, -0.0031466744840145 ]
  - [   0.0030802190303802,  0.0004911143332720, -0.0141839794814587 ]
  - [   0.0030269734561443,  0.0005139876157045, -0.0142903365194798 ]
  - [   0.0030512288212776,  0.0006189141422510, -0.0142244175076485 ]
  - [   0.0030206888914108,  0.0004631262272596, -0.0143861621618271 ]
  - [   0.0030945576727390,  0.0005305185914040, -0.0142137520015240 ]
  - [   0.0030199885368347,  0.0006556492298841, -0.0141933150589466 ]
  - [   0.0403426215052605,  0.0207259114831686,  0.0023518390953541 ]
  - [   0.0392472147941589,  0.0181996636092663,  0.0029776208102703 ]
  - [   0.0394025221467018,  0.0179971214383841,  0.0032084025442600 ]
  - [   0.0393153131008148,  0.0179206691682339,  0.0030240379273891 ]
  - [   0.0458204932510853,  0.0161387939006090,  0.0008031241595745 ]
  - [   0.0458638444542885,  0.0209076292812824,  0.0044777169823647 ]
- atom:    1
  displacement:
    [  -0.0100000000000000,  0.0000000000000000,  0.0000000000000000 ]
  forces:
  - [   0.0381468161940575,  0.0108656939119101,  0.0046436190605164 ]
  - [   0.0188187621533871,  0.0087872538715601,  0.0072431303560734 ]
  - [   0.0183806139975786,  0.0087755145505071,  0.0071104234084487 ]
  - [   0.0183286517858505,  0.0089562777429819,  0.0072114439681172 ]
  - [   0.0183806121349335,  0.0091268057003617,  0.0071714613586664 ]
  - [   0.0183255337178707,  0.0090744821354747,  0.0071445154026151 ]
  - [  -0.0181879065930843, -0.0095915701240301,  0.0112242847681046 ]
  - [  -0.0183108486235142, -0.0096559543162584,  0.0115301087498665 ]
  - [  -0.0182865485548973, -0.0096247168257833,  0.0115567445755005 ]
  - [  -0.0182971768081188, -0.0096538746729493,  0.0115529522299767 ]
  - [  -0.0182808246463537, -0.0096581252291799,  0.0115529373288155 ]
  - [  -0.0182919204235077, -0.0096431085839868,  0.0115392096340656 ]
  - [   0.0193990692496300,  0.0096719935536385, -0.0223995484411716 ]
  - [   0.0208569243550301,  0.0096160601824522, -0.0224850997328758 ]
  - [   0.0191236138343811,  0.0096469391137362, -0.0224550329148769 ]
  - [   0.0192171074450016,  0.0099197197705507, -0.0225770510733128 ]
  - [   0.0183299742639065,  0.0103751178830862, -0.0235102940350771 ]
  - [   0.0192204266786575,  0.0095629841089249, -0.0224987883120775 ]
  - [  -0.0212877131998539, -0.0088964700698853, -0.0055197943001986 ]
  - [  -0.0210989750921726, -0.0089348210021853, -0.0060394089668989 ]
  - [  -0.0211598090827465, -0.0087578371167183, -0.0059066284447908 ]
  - [  -0.0210996307432652, -0.0088567063212395, -0.0060745552182198 ]
  - [  -0.0209803059697151, -0.0088451830670238, -0.0060111600905657 ]
  - [  -0.0210129600018263, -0.0088142212480307, -0.0060574002563953 ]
  - [  -0.0063968505710363, -0.0034416434355080,  0.0109552629292011 ]
  - [  -0.0062618651427329, -0.0036856220103800,  0.0112178856506944 ]
  - [  -0.0064255120232701, -0.0035173171199858,  0.0110130012035370 ]
  - [  -0.0063986629247665, -0.0035295980051160,  0.0110348602756858 ]
  - [  -0.0063672913238406, -0.0034713009372354,  0.0107749868184328 ]
  - [  -0.0063299732282758, -0.0033860071562231,  0.0107866078615189 ]
  - [  -0.0063440818339586, -0.0026612300425768,  0.0127528198063374 ]
  - [  -0.0075910976156592, -0.0017721881158650,  0.0120817776769400 ]
  - [  -0.0065142689272761, -0.0024960229638964,  0.0127749573439360 ]
  - [  -0.0066093914210796, -0.0027551390230656,  0.0129075609147549 ]
  - [  -0.0048254569992423, -0.0027542803436518,  0.0128969568759203 ]
  - [  -0.0062722740694880, -0.0029115956276655,  0.0130508793517947 ]
  - [   0.0051507242023945,  0.0025189267471433,  0.0109276194125414 ]
  - [   0.0060005206614733,  0.0027422630228102,  0.0085174273699522 ]
  - [   0.0060838768258691,  0.0027807219885290,  0.0084310919046402 ]
  - [   0.0059542162343860,  0.0027793641202152,  0.0084387287497520 ]
  - [   0.0061022266745567,  0.0027362927794456,  0.0084750689566135 ]
  - [   0.0061178039759398,  0.0026670917868614,  0.0084076039493084 ]
  - [   0.0207512583583593,  0.0101735442876816, -0.0059450697153807 ]
  - [   0.0184306949377060,  0.0138968937098980, -0.0033990629017353 ]
  - [   0.0236515663564205,  0.0113454600796103, -0.0050536440685391 ]
  - [   0.0235732346773148,  0.0113237472251058, -0.0051219332963228 ]
  - [   0.0235980544239283,  0.0111956093460321, -0.0050677638500929 ]
  - [   0.0231593251228333,  0.0090703340247273, -0.0044027231633663 ]
  - [  -0.0180791951715946, -0.0086455550044775, -0.0032408758997917 ]
  - [  -0.0181931890547276, -0.0086363945156336, -0.0032932274043560 ]
  - [  -0.0181507803499699, -0.0086196642369032, -0.0032565779983997 ]
  - [  -0.0181645378470421, -0.0086342245340347, -0.0032965801656246 ]
  - [  -0.0181807279586792, -0.0086022987961769, -0.0032728612422943 ]
  - [  -0.0181806161999702, -0.0086731072515249, -0.0032334215939045 ]
  - [  -0.0391476675868034, -0.0177006758749485, -0.0034217163920403 ]
  - [  -0.0389894172549248, -0.0177584439516068, -0.0035423263907433 ]
  - [  -0.0390854142606258, -0.0176788661628962, -0.0033276155591011 ]
  - [  -0.0391524285078049, -0.0177280344069004, -0.0033265165984631 ]
  - [  -0.0389192700386047, -0.0178145170211792, -0.0032052285969257 ]
  - [  -0.0391190499067307, -0.0176168233156204, -0.0034611374139786 ]
  - [   0.0030376799404621,  0.0005873180925846, -0.0143552124500275 ]
  - [   0.0030912011861801,  0.0005644783377647, -0.0142495222389698 ]
  - [   0.0030668154358864,  0.0004586894065142, -0.0143169015645981 ]
  - [   0.0030985474586487,  0.0006152987480164, -0.0141547024250031 ]
  - [   0.0030225664377213,  0.0005504135042429, -0.0143296122550964 ]
  - [   0.0030983164906502,  0.0004250686615705, -0.0143462233245373 ]
  - [   0.0383837334811687,  0.0153886973857880,  0.0040211267769337 ]
  - [   0.0395042560994625,  0.0179150458425283,  0.0033969506621361 ]
  - [   0.0393494367599487,  0.0181197021156549,  0.0031606629490852 ]
  - [   0.0394381582736969,  0.0181984156370163,  0.0033459141850471 ]
  - [   0.0331212803721428,  0.0198832713067532,  0.0054883137345314 ]
  - [   0.0326800160109997,  0.0151076242327690,  0.0018163286149502 ]
- atom:    1
  displacement:
    [  -0.0041438920854447,  0.0091009976587289,  0.0000000000000000 ]
  forces:
  - [   0.0246670879423618, -0.0050521576777101,  0.0072464579716325 ]
  - [   0.0185533966869116,  0.0091819092631340,  0.0074994163587689 ]
  - [   0.0180596597492695,  0.0089975064620376,  0.0071937283501029 ]
  - [   0.0180838815867901,  0.0088049722835422,  0.0071058217436075 ]
  - [   0.0183768197894096,  0.0091459462419152,  0.0073356423527002 ]
  - [   0.0181942805647850,  0.0088536031544209,  0.0071925353258848 ]
  - [  -0.0182991158217192, -0.0096306726336479,  0.0115474462509155 ]
  - [  -0.0183067284524441, -0.0096417609602213,  0.0115369744598866 ]
  - [  -0.0182786192744970, -0.0096367783844471,  0.0115553736686707 ]
  - [  -0.0182798858731985, -0.0096538299694657,  0.0115621350705624 ]
  - [  -0.0183072872459888, -0.0096487905830145,  0.0115394666790962 ]
  - [  -0.0182855911552906, -0.0096445865929127,  0.0115428492426872 ]
  - [   0.0194289870560169,  0.0110246241092682, -0.0211006365716457 ]
  - [   0.0198523588478565,  0.0093091353774071, -0.0227529890835285 ]
  - [   0.0191231630742550,  0.0096733774989843, -0.0224657990038395 ]
  - [   0.0189369805157185,  0.0088672321289778, -0.0221882592886686 ]
  - [   0.0179342441260815,  0.0103192068636417, -0.0238025300204754 ]
  - [   0.0192427858710289,  0.0094138719141483, -0.0224590525031090 ]
  - [  -0.0210452713072300, -0.0086976448073983, -0.0060013644397259 ]
  - [  -0.0209977403283119, -0.0088823288679123, -0.0059552490711212 ]
  - [  -0.0211927331984043, -0.0087656043469906, -0.0058727860450745 ]
  - [  -0.0209439266473055, -0.0088845193386078, -0.0060156229883432 ]
  - [  -0.0209005381911993, -0.0086283748969436, -0.0061194561421871 ]
  - [  -0.0210140906274319, -0.0087327547371387, -0.0060171131044626 ]
  - [  -0.0064790742471814, -0.0034248703159392,  0.0112513396888971 ]
  - [  -0.0062011922709644, -0.0037343180738389,  0.0112327747046947 ]
  - [  -0.0064235432073474, -0.0035370760597289,  0.0110229477286339 ]
  - [  -0.0064027430489659, -0.0038205077871680,  0.0108192963525653 ]
  - [  -0.0064431289210916, -0.0034141610376537,  0.0108077079057693 ]
  - [  -0.0065017985180020, -0.0033449744805694,  0.0110272411257029 ]
  - [  -0.0065951403230429, -0.0027642361819744,  0.0129119725897908 ]
  - [  -0.0079217646270990, -0.0019726101309061,  0.0117314420640469 ]
  - [  -0.0068193078041077, -0.0036022800486535,  0.0132016483694315 ]
  - [  -0.0066167525947094, -0.0027278736233711,  0.0129058388993144 ]
  - [  -0.0058698654174805, -0.0030787857249379,  0.0126049537211657 ]
  - [  -0.0063344980590045, -0.0012787720188498,  0.0140583682805300 ]
  - [   0.0058813402429223,  0.0030959597788751,  0.0085107907652855 ]
  - [   0.0060121910646558,  0.0026046512648463,  0.0086198262870312 ]
  - [   0.0060275970026851,  0.0027046557515860,  0.0084441658109426 ]
  - [   0.0060474583879113,  0.0028736409731209,  0.0084674861282110 ]
  - [   0.0060896589420736,  0.0027342475950718,  0.0085558034479618 ]
  - [   0.0061072716489434,  0.0026940666139126,  0.0084116682410240 ]
  - [   0.0234530214220285,  0.0116330841556191, -0.0051121339201927 ]
  - [   0.0198698975145817,  0.0130404103547335, -0.0039274245500565 ]
  - [   0.0236797630786896,  0.0112477578222752, -0.0049911607056856 ]
  - [   0.0235654376447201,  0.0114454515278339, -0.0050944108515978 ]
  - [   0.0236322190612555,  0.0112302666530013, -0.0051837302744389 ]
  - [   0.0247173979878426,  0.0151461735367775, -0.0062164254486561 ]
  - [  -0.0180736035108566, -0.0085853431373835, -0.0032501854002476 ]
  - [  -0.0182040780782700, -0.0086233709007502, -0.0032453201711178 ]
  - [  -0.0181614495813847, -0.0086175948381424, -0.0032953321933746 ]
  - [  -0.0181424729526043, -0.0085933916270733, -0.0033666975796223 ]
  - [  -0.0182425342500210, -0.0086703076958656, -0.0033518709242344 ]
  - [  -0.0181181207299232, -0.0086935181170702, -0.0032834969460964 ]
  - [  -0.0391196236014366, -0.0176823139190674, -0.0033074617385864 ]
  - [  -0.0389940775930882, -0.0177288055419922, -0.0033467374742031 ]
  - [  -0.0391426160931587, -0.0179708693176508, -0.0034424960613251 ]
  - [  -0.0391373261809349, -0.0176933128386736, -0.0033033490180969 ]
  - [  -0.0389335267245770, -0.0178728625178337, -0.0031597316265106 ]
  - [  -0.0391911715269089, -0.0178179573267698, -0.0032622106373310 ]
  - [   0.0030735097825527,  0.0005391202867031, -0.0142392963171005 ]
  - [   0.0031618140637875,  0.0004477147012949, -0.0141563005745411 ]
  - [   0.0030685849487782,  0.0004882290959358, -0.0143279507756233 ]
  - [   0.0030122995376587,  0.0006393678486347, -0.0142698287963867 ]
  - [   0.0030361525714397,  0.0005908235907555, -0.0142438858747482 ]
  - [   0.0030624158680439,  0.0004044678062201, -0.0143841952085495 ]
  - [   0.0415117032825947,  0.0220827646553516,  0.0013588480651379 ]