phonopy:
  version: "2.37.1"
  frequency_unit_conversion_factor: 15.633302
  symmetry_tolerance: 1.00000e-05

space_group:
  type: "R-3m"
  number: 166
  Hall_symbol: "-R 3 2\""

primitive_matrix:
- [  0.000000000000000, -1.000000000000000,  0.000000000000000 ]
- [  0.000000000000000,  0.000000000000000, -1.000000000000000 ]
- [  1.000000000000000,  1.000000000000000,  1.000000000000000 ]

supercell_matrix:
- [   3,   0,   0 ]
- [   0,   3,   0 ]
- [   0,   0,   2 ]

primitive_cell:
  lattice:
  - [     2.202437976339111,     1.271578051282475,     4.544266444535358 ] # a
  - [    -2.202437930244495,     1.271578051282475,     4.544266444535358 ] # b
  - [     0.000000201060838,    -2.543156116416138,     4.544266444535358 ] # c
  points:
  - symbol: Li # 1
    coordinates: [  0.000000010148387,  0.999999993662254,  0.000000000164360 ]
    mass: 6.940000
  - symbol: Li # 2
    coordinates: [  0.402037202390227,  0.402037210787440,  0.402037204811241 ]
    mass: 6.940000
  - symbol: Li # 3
    coordinates: [  0.597962804438544,  0.597962778024142,  0.597962782832007 ]
    mass: 6.940000
  - symbol: Ga # 4
    coordinates: [  0.800904224968780,  0.800904182232228,  0.800904209473996 ]
    mass: 69.723000
  - symbol: Ga # 5
    coordinates: [  0.199095759925980,  0.199095834478053,  0.199095802654378 ]
    mass: 69.723000
  reciprocal_lattice: # without 2pi
  - [     0.227021151380311,     0.131070742660551,     0.073352502390384 ] # a*
  - [    -0.227021151380311,     0.131070721472791,     0.073352510621932 ] # b*
  - [     0.000000000000000,    -0.262141464133342,     0.073352506106647 ] # c*

unit_cell:
  lattice:
  - [     4.404875906583606,     0.000000000000000,     0.000000000000000 ] # a
  - [     2.202437775278273,     3.814734167698612,     0.000000000000000 ] # b
  - [     2.202437976339111,     1.271578051282475,     4.544266444535359 ] # c
  points:
  - symbol: Li # 1
    coordinates: [  0.000000006337746,  0.999999999835640,  0.000000003975002 ]
    mass: 6.940000
    reduced_to: 1
  - symbol: Li # 2
    coordinates: [  0.597962789212560,  0.597962795188759,  0.206111617988908 ]
    mass: 6.940000
    reduced_to: 2
  - symbol: Li # 3
    coordinates: [  0.402037221975858,  0.402037217167993,  0.793888365294693 ]
    mass: 6.940000
    reduced_to: 3
  - symbol: Ga # 4
    coordinates: [  0.199095817767772,  0.199095790526004,  0.402712616675005 ]
    mass: 69.723000
    reduced_to: 4
  - symbol: Ga # 5
    coordinates: [  0.800904165521947,  0.800904197345622,  0.597287397058411 ]
    mass: 69.723000
    reduced_to: 5

supercell:
  lattice:
  - [    13.214627719750819,     0.000000000000000,     0.000000000000000 ] # a
  - [     6.607313325834820,    11.444202503095838,     0.000000000000000 ] # b
  - [     4.404875952678222,     2.543156102564950,     9.088532889070718 ] # c
  points:
  - symbol: Li # 1
    coordinates: [  0.000000002112582,  0.333333333278547,  0.000000001987501 ]
    mass: 6.940000
    reduced_to: 1
  - symbol: Li # 2
    coordinates: [  0.333333335445915,  0.333333333278547,  0.000000001987501 ]
    mass: 6.940000
    reduced_to: 1
  - symbol: Li # 3
    coordinates: [  0.666666668779249,  0.333333333278547,  0.000000001987501 ]
    mass: 6.940000
    reduced_to: 1
  - symbol: Li # 4
    coordinates: [  0.000000002112582,  0.666666666611880,  0.000000001987501 ]
    mass: 6.940000
    reduced_to: 1
  - symbol: Li # 5
    coordinates: [  0.333333335445915,  0.666666666611880,  0.000000001987501 ]
    mass: 6.940000
    reduced_to: 1
  - symbol: Li # 6
    coordinates: [  0.666666668779249,  0.666666666611880,  0.000000001987501 ]
    mass: 6.940000
    reduced_to: 1
  - symbol: Li # 7
    coordinates: [  0.000000002112582,  0.999999999945213,  0.000000001987501 ]
    mass: 6.940000
    reduced_to: 1
  - symbol: Li # 8
    coordinates: [  0.333333335445915,  0.999999999945213,  0.000000001987501 ]
    mass: 6.940000
    reduced_to: 1
  - symbol: Li # 9
    coordinates: [  0.666666668779249,  0.999999999945213,  0.000000001987501 ]
    mass: 6.940000
    reduced_to: 1
  - symbol: Li # 10
    coordinates: [  0.000000002112582,  0.333333333278547,  0.500000001987501 ]
    mass: 6.940000
    reduced_to: 1
  - symbol: Li # 11
    coordinates: [  0.333333335445915,  0.333333333278547,  0.500000001987501 ]
    mass: 6.940000
    reduced_to: 1
  - symbol: Li # 12
    coordinates: [  0.666666668779249,  0.333333333278547,  0.500000001987501 ]
    mass: 6.940000
    reduced_to: 1
  - symbol: Li # 13
    coordinates: [  0.000000002112582,  0.666666666611880,  0.500000001987501 ]
    mass: 6.940000
    reduced_to: 1
  - symbol: Li # 14
    coordinates: [  0.333333335445915,  0.666666666611880,  0.500000001987501 ]
    mass: 6.940000
    reduced_to: 1
  - symbol: Li # 15
    coordinates: [  0.666666668779249,  0.666666666611880,  0.500000001987501 ]
    mass: 6.940000
    reduced_to: 1
  - symbol: Li # 16
    coordinates: [  0.000000002112582,  0.999999999945213,  0.500000001987501 ]
    mass: 6.940000
    reduced_to: 1
  - symbol: Li # 17
    coordinates: [  0.333333335445915,  0.999999999945213,  0.500000001987501 ]
    mass: 6.940000
    reduced_to: 1
  - symbol: Li # 18
    coordinates: [  0.666666668779249,  0.999999999945213,  0.500000001987501 ]
    mass: 6.940000
    reduced_to: 1
  - symbol: Li # 19
    coordinates: [  0.199320929737520,  0.199320931729586,  0.103055808994454 ]
    mass: 6.940000
    reduced_to: 19
  - symbol: Li # 20
    coordinates: [  0.532654263070853,  0.199320931729586,  0.103055808994454 ]
    mass: 6.940000
    reduced_to: 19
  - symbol: Li # 21
    coordinates: [  0.865987596404187,  0.199320931729586,  0.103055808994454 ]
    mass: 6.940000
    reduced_to: 19
  - symbol: Li # 22
    coordinates: [  0.199320929737520,  0.532654265062920,  0.103055808994454 ]
    mass: 6.940000
    reduced_to: 19
  - symbol: Li # 23
    coordinates: [  0.532654263070853,  0.532654265062920,  0.103055808994454 ]
    mass: 6.940000
    reduced_to: 19
  - symbol: Li # 24
    coordinates: [  0.865987596404187,  0.532654265062920,  0.103055808994454 ]
    mass: 6.940000
    reduced_to: 19
  - symbol: Li # 25
    coordinates: [  0.199320929737520,  0.865987598396253,  0.103055808994454 ]
    mass: 6.940000
    reduced_to: 19
  - symbol: Li # 26
    coordinates: [  0.532654263070853,  0.865987598396253,  0.103055808994454 ]
    mass: 6.940000
    reduced_to: 19
  - symbol: Li # 27
    coordinates: [  0.865987596404187,  0.865987598396253,  0.103055808994454 ]
    mass: 6.940000
    reduced_to: 19
  - symbol: Li # 28
    coordinates: [  0.199320929737520,  0.199320931729586,  0.603055808994454 ]
    mass: 6.940000
    reduced_to: 19
  - symbol: Li # 29
    coordinates: [  0.532654263070853,  0.199320931729586,  0.603055808994454 ]
    mass: 6.940000
    reduced_to: 19
  - symbol: Li # 30
    coordinates: [  0.865987596404187,  0.199320931729586,  0.603055808994454 ]
    mass: 6.940000
    reduced_to: 19
  - symbol: Li # 31
    coordinates: [  0.199320929737520,  0.532654265062920,  0.603055808994454 ]
    mass: 6.940000
    reduced_to: 19
  - symbol: Li # 32
    coordinates: [  0.532654263070853,  0.532654265062920,  0.603055808994454 ]
    mass: 6.940000
    reduced_to: 19
  - symbol: Li # 33
    coordinates: [  0.865987596404187,  0.532654265062920,  0.603055808994454 ]
    mass: 6.940000
    reduced_to: 19
  - symbol: Li # 34
    coordinates: [  0.199320929737520,  0.865987598396253,  0.603055808994454 ]
    mass: 6.940000
    reduced_to: 19
  - symbol: Li # 35
    coordinates: [  0.532654263070853,  0.865987598396253,  0.603055808994454 ]
    mass: 6.940000
    reduced_to: 19
  - symbol: Li # 36
    coordinates: [  0.865987596404187,  0.865987598396253,  0.603055808994454 ]
    mass: 6.940000
    reduced_to: 19
  - symbol: Li # 37
    coordinates: [  0.134012407325286,  0.134012405722664,  0.396944182647347 ]
    mass: 6.940000
    reduced_to: 37
  - symbol: Li # 38
    coordinates: [  0.467345740658619,  0.134012405722664,  0.396944182647347 ]
    mass: 6.940000
    reduced_to: 37
  - symbol: Li # 39
    coordinates: [  0.800679073991953,  0.134012405722664,  0.396944182647347 ]
    mass: 6.940000
    reduced_to: 37
  - symbol: Li # 40
    coordinates: [  0.134012407325286,  0.467345739055998,  0.396944182647347 ]
    mass: 6.940000
    reduced_to: 37
  - symbol: Li # 41
    coordinates: [  0.467345740658619,  0.467345739055998,  0.396944182647347 ]
    mass: 6.940000
    reduced_to: 37
  - symbol: Li # 42
    coordinates: [  0.800679073991953,  0.467345739055998,  0.396944182647347 ]
    mass: 6.940000
    reduced_to: 37
  - symbol: Li # 43
    coordinates: [  0.134012407325286,  0.800679072389331,  0.396944182647347 ]
    mass: 6.940000
    reduced_to: 37
  - symbol: Li # 44
    coordinates: [  0.467345740658619,  0.800679072389331,  0.396944182647347 ]
    mass: 6.940000
    reduced_to: 37
  - symbol: Li # 45
    coordinates: [  0.800679073991953,  0.800679072389331,  0.396944182647347 ]
    mass: 6.940000
    reduced_to: 37
  - symbol: Li # 46
    coordinates: [  0.134012407325286,  0.134012405722664,  0.896944182647347 ]
    mass: 6.940000
    reduced_to: 37
  - symbol: Li # 47
    coordinates: [  0.467345740658619,  0.134012405722664,  0.896944182647347 ]
    mass: 6.940000
    reduced_to: 37
  - symbol: Li # 48
    coordinates: [  0.800679073991953,  0.134012405722664,  0.896944182647347 ]
    mass: 6.940000
    reduced_to: 37
  - symbol: Li # 49
    coordinates: [  0.134012407325286,  0.467345739055998,  0.896944182647347 ]
    mass: 6.940000
    reduced_to: 37
  - symbol: Li # 50
    coordinates: [  0.467345740658619,  0.467345739055998,  0.896944182647347 ]
    mass: 6.940000
    reduced_to: 37
  - symbol: Li # 51
    coordinates: [  0.800679073991953,  0.467345739055998,  0.896944182647347 ]
    mass: 6.940000
    reduced_to: 37
  - symbol: Li # 52
    coordinates: [  0.134012407325286,  0.800679072389331,  0.896944182647347 ]
    mass: 6.940000
    reduced_to: 37
  - symbol: Li # 53
    coordinates: [  0.467345740658619,  0.800679072389331,  0.896944182647347 ]
    mass: 6.940000
    reduced_to: 37
  - symbol: Li # 54
    coordinates: [  0.800679073991953,  0.800679072389331,  0.896944182647347 ]
    mass: 6.940000
    reduced_to: 37
  - symbol: Ga # 55
    coordinates: [  0.066365272589257,  0.066365263508668,  0.201356308337503 ]
    mass: 69.723000
    reduced_to: 55
  - symbol: Ga # 56
    coordinates: [  0.399698605922591,  0.066365263508668,  0.201356308337503 ]
    mass: 69.723000
    reduced_to: 55
  - symbol: Ga # 57
    coordinates: [  0.733031939255924,  0.066365263508668,  0.201356308337503 ]
    mass: 69.723000
    reduced_to: 55
  - symbol: Ga # 58
    coordinates: [  0.066365272589257,  0.399698596842001,  0.201356308337503 ]
    mass: 69.723000
    reduced_to: 55
  - symbol: Ga # 59
    coordinates: [  0.399698605922591,  0.399698596842001,  0.201356308337503 ]
    mass: 69.723000
    reduced_to: 55
  - symbol: Ga # 60
    coordinates: [  0.733031939255924,  0.399698596842001,  0.201356308337503 ]
    mass: 69.723000
    reduced_to: 55
  - symbol: Ga # 61
    coordinates: [  0.066365272589257,  0.733031930175335,  0.201356308337503 ]
    mass: 69.723000
    reduced_to: 55
  - symbol: Ga # 62
    coordinates: [  0.399698605922591,  0.733031930175335,  0.201356308337503 ]
    mass: 69.723000
    reduced_to: 55
  - symbol: Ga # 63
    coordinates: [  0.733031939255924,  0.733031930175335,  0.201356308337503 ]
    mass: 69.723000
    reduced_to: 55
  - symbol: Ga # 64
    coordinates: [  0.066365272589257,  0.066365263508668,  0.701356308337503 ]
    mass: 69.723000
    reduced_to: 55
  - symbol: Ga # 65
    coordinates: [  0.399698605922591,  0.066365263508668,  0.701356308337503 ]
    mass: 69.723000
    reduced_to: 55
  - symbol: Ga # 66
    coordinates: [  0.733031939255924,  0.066365263508668,  0.701356308337503 ]
    mass: 69.723000
    reduced_to: 55
  - symbol: Ga # 67
    coordinates: [  0.066365272589257,  0.399698596842001,  0.701356308337503 ]
    mass: 69.723000
    reduced_to: 55
  - symbol: Ga # 68
    coordinates: [  0.399698605922591,  0.399698596842001,  0.701356308337503 ]
    mass: 69.723000
    reduced_to: 55
  - symbol: Ga # 69
    coordinates: [  0.733031939255924,  0.399698596842001,  0.701356308337503 ]
    mass: 69.723000
    reduced_to: 55
  - symbol: Ga # 70
    coordinates: [  0.066365272589257,  0.733031930175335,  0.701356308337503 ]
    mass: 69.723000
    reduced_to: 55
  - symbol: Ga # 71
    coordinates: [  0.399698605922591,  0.733031930175335,  0.701356308337503 ]
    mass: 69.723000
    reduced_to: 55
  - symbol: Ga # 72
    coordinates: [  0.733031939255924,  0.733031930175335,  0.701356308337503 ]
    mass: 69.723000
    reduced_to: 55
  - symbol: Ga # 73
    coordinates: [  0.266968055173982,  0.266968065781874,  0.298643698529205 ]
    mass: 69.723000
    reduced_to: 73
  - symbol: Ga # 74
    coordinates: [  0.600301388507316,  0.266968065781874,  0.298643698529205 ]
    mass: 69.723000
    reduced_to: 73
  - symbol: Ga # 75
    coordinates: [  0.933634721840649,  0.266968065781874,  0.298643698529205 ]
    mass: 69.723000
    reduced_to: 73
  - symbol: Ga # 76
    coordinates: [  0.266968055173982,  0.600301399115207,  0.298643698529205 ]
    mass: 69.723000
    reduced_to: 73
  - symbol: Ga # 77
    coordinates: [  0.600301388507316,  0.600301399115207,  0.298643698529205 ]
    mass: 69.723000
    reduced_to: 73
  - symbol: Ga # 78
    coordinates: [  0.933634721840649,  0.600301399115207,  0.298643698529205 ]
    mass: 69.723000
    reduced_to: 73
  - symbol: Ga # 79
    coordinates: [  0.266968055173982,  0.933634732448541,  0.298643698529205 ]
    mass: 69.723000
    reduced_to: 73
  - symbol: Ga # 80
    coordinates: [  0.600301388507316,  0.933634732448541,  0.298643698529205 ]
    mass: 69.723000
    reduced_to: 73
  - symbol: Ga # 81
    coordinates: [  0.933634721840649,  0.933634732448541,  0.298643698529205 ]
    mass: 69.723000
    reduced_to: 73
  - symbol: Ga # 82
    coordinates: [  0.266968055173982,  0.266968065781874,  0.798643698529205 ]
    mass: 69.723000
    reduced_to: 73
  - symbol: Ga # 83
    coordinates: [  0.600301388507316,  0.266968065781874,  0.798643698529205 ]
    mass: 69.723000
    reduced_to: 73
  - symbol: Ga # 84
    coordinates: [  0.933634721840649,  0.266968065781874,  0.798643698529205 ]
    mass: 69.723000
    reduced_to: 73
  - symbol: Ga # 85
    coordinates: [  0.266968055173982,  0.600301399115207,  0.798643698529205 ]
    mass: 69.723000
    reduced_to: 73
  - symbol: Ga # 86
    coordinates: [  0.600301388507316,  0.600301399115207,  0.798643698529205 ]
    mass: 69.723000
    reduced_to: 73
  - symbol: Ga # 87
    coordinates: [  0.933634721840649,  0.600301399115207,  0.798643698529205 ]
    mass: 69.723000
    reduced_to: 73
  - symbol: Ga # 88
    coordinates: [  0.266968055173982,  0.933634732448541,  0.798643698529205 ]
    mass: 69.723000
    reduced_to: 73
  - symbol: Ga # 89
    coordinates: [  0.600301388507316,  0.933634732448541,  0.798643698529205 ]
    mass: 69.723000
    reduced_to: 73
  - symbol: Ga # 90
    coordinates: [  0.933634721840649,  0.933634732448541,  0.798643698529205 ]
    mass: 69.723000
    reduced_to: 73

displacements:
- atom:    1
  displacement:
    [   0.0100000000000000,  0.0000000000000000,  0.0000000000000000 ]
  forces:
  - [  -0.0189434401690960,  0.0000008987262845,  0.0000013075768948 ]
  - [  -0.0004813920240849, -0.0000001993030310,  0.0000004023313522 ]
  - [  -0.0004770700470544, -0.0000003119930625,  0.0000007115304470 ]
  - [   0.0000042423489504, -0.0002792030572891, -0.0000314712524414 ]
  - [   0.0000049846130423,  0.0000001192092896,  0.0000032596290112 ]
  - [   0.0000047073117457,  0.0002770377323031,  0.0000297762453556 ]
  - [   0.0000034291297197, -0.0002769515849650, -0.0000294316560030 ]
  - [   0.0000056233257055,  0.0002798084169626,  0.0000310670584440 ]
  - [   0.0000035739503801,  0.0000004074536264,  0.0000023879110813 ]
  - [  -0.0000786838936619, -0.0000099304597825,  0.0001229792833328 ]
  - [  -0.0000033734249882,  0.0000046131317504, -0.0000642649829388 ]
  - [  -0.0000014827237464,  0.0000045551569201, -0.0000615417957306 ]
  - [  -0.0000171959400177,  0.0000111605622806,  0.0000095367431641 ]
  - [   0.0000463875767309,  0.0000226069823839, -0.0000455193221569 ]
  - [   0.0000029859356800, -0.0000367086904589,  0.0000321641564369 ]
  - [  -0.0000175065360963,  0.0000141359632835,  0.0000099465250969 ]
  - [   0.0000034245313145, -0.0000351861526724,  0.0000329278409481 ]
  - [   0.0000474789412692,  0.0000241184898186, -0.0000447630882263 ]
  - [   0.0048010330647230, -0.0030777887441218,  0.0097649171948433 ]
  - [   0.0001069128047675, -0.0000001233420335,  0.0074466243386269 ]
  - [   0.0047111120074987,  0.0030073903035372,  0.0051820613443851 ]
  - [  -0.0000493039406138, -0.0000033191754483,  0.0075210966169834 ]
  - [  -0.0000506317010149,  0.0000070888927439,  0.0073755197227001 ]
  - [  -0.0005156613769941, -0.0000121218326967,  0.0074400752782822 ]
  - [  -0.0000403429148719, -0.0000011616066331,  0.0074490681290627 ]
  - [   0.0000276969221886, -0.0000447143829660,  0.0074692480266094 ]
  - [   0.0000295056670438,  0.0000454113323940,  0.0074220150709152 ]
  - [   0.0000796147869551,  0.0000038081780076,  0.0074779950082302 ]
  - [   0.0000394055387005,  0.0000166120007634,  0.0074402987957001 ]
  - [   0.0000932366820052, -0.0000208243727684,  0.0074242725968361 ]
  - [   0.0001981938257813,  0.0000768657773733,  0.0076497755944729 ]
  - [  -0.0000160411000252, -0.0000013085082173,  0.0074173137545586 ]
  - [   0.0002011880278587, -0.0000730603933334,  0.0072786957025528 ]
  - [  -0.0000057648867369, -0.0000150725245476,  0.0074606761336327 ]
  - [  -0.0000124303624034,  0.0000062230974436,  0.0074350535869598 ]
  - [   0.0000663502141833,  0.0000097339761851,  0.0074454024434090 ]
  - [   0.0002038596430793, -0.0000752713531256, -0.0076194070279598 ]
  - [  -0.0000160287600011, -0.0000005653710105, -0.0074751973152161 ]
  - [   0.0001969552831724,  0.0000742885167710, -0.0072483010590076 ]
  - [   0.0000939454184845, -0.0000207482371479, -0.0074721314013004 ]
  - [   0.0000375539930246,  0.0000167707912624, -0.0074539855122566 ]
  - [   0.0000781170092523,  0.0000044362386689, -0.0074154064059258 ]
  - [   0.0000666566193104,  0.0000083445338532, -0.0074481330811977 ]
  - [  -0.0000110925175250,  0.0000054056290537, -0.0074583962559700 ]
  - [  -0.0000060977181420, -0.0000150647247210, -0.0074330642819405 ]
  - [  -0.0005152992671356,  0.0000114701688290, -0.0074456594884396 ]
  - [  -0.0000476683489978,  0.0000037709251046, -0.0075187049806118 ]
  - [  -0.0000517655862495, -0.0000057397410274, -0.0073735043406487 ]
  - [   0.0047993473708630,  0.0030780420638621, -0.0097658410668373 ]
  - [   0.0001068217679858, -0.0000003129243851, -0.0074477940797806 ]
  - [   0.0047119418159127, -0.0030069556087255, -0.0051825828850269 ]
  - [   0.0000281799584627,  0.0000452459789813, -0.0074724704027176 ]
  - [   0.0000254469923675, -0.0000449647195637, -0.0074249990284443 ]
  - [  -0.0000403998419642,  0.0000006998889148, -0.0074453949928284 ]
  - [   0.0007400632603094,  0.0000058858522607, -0.1873870491981506 ]
  - [   0.0000096177682281,  0.0000345800071955, -0.1873330175876617 ]
  - [   0.0000066217035055, -0.0000360831618309, -0.1874418854713440 ]
  - [   0.0003458987921476, -0.0002349670976400, -0.1883957982063293 ]
  - [  -0.0001348424702883,  0.0000013989629224, -0.1873831003904343 ]
  - [   0.0003309957683086,  0.0002336491597816, -0.1863743960857391 ]
  - [  -0.0000385809689760, -0.0000558346509933, -0.1873840689659119 ]
  - [  -0.0000433698296547,  0.0000512069091201, -0.1873842775821686 ]
  - [   0.0000650864094496, -0.0000007534399629, -0.1873938739299774 ]
  - [   0.0000063213519752,  0.0001243073493242, -0.1873889714479446 ]
  - [  -0.0000109258107841, -0.0001277262344956, -0.1873655766248703 ]
  - [   0.0000252695754170,  0.0000003566965461, -0.1874107569456100 ]
  - [  -0.0011639329604805, -0.0000012749806046, -0.1873514801263809 ]
  - [   0.0001695195096545, -0.0000466974452138, -0.1874463260173798 ]
  - [   0.0001709654461592,  0.0000489726662636, -0.1873411238193512 ]
  - [  -0.0000661106896587,  0.0001081908121705, -0.1874620467424393 ]
  - [  -0.0000665640109219,  0.0000060917809606, -0.1873828172683716 ]
  - [  -0.0000660063815303, -0.0001141199609265, -0.1873258054256439 ]
  - [   0.0001753494143486,  0.0000481531023979,  0.1874364614486694 ]
  - [   0.0001646801829338, -0.0000466126948595,  0.1873312890529633 ]
  - [  -0.0011659581214190, -0.0000004488974810,  0.1873662918806076 ]
  - [   0.0000274050980806,  0.0000019595026970,  0.1873645037412643 ]
  - [  -0.0000088196247816, -0.0001253690570593,  0.1874098181724548 ]
  - [   0.0000062771141529,  0.0001262947916985,  0.1873862147331238 ]
  - [  -0.0000644102692604, -0.0001142807304859,  0.1874532550573349 ]
  - [  -0.0000648871064186,  0.0000065974891186,  0.1873953640460968 ]
  - [  -0.0000670142471790,  0.0001074533065548,  0.1873167306184769 ]
  - [   0.0003473144024611,  0.0002331603318453,  0.1883942484855652 ]
  - [  -0.0001346524804831,  0.0000020731240511,  0.1873924434185028 ]
  - [   0.0003280309611000, -0.0002363976091146,  0.1863727271556854 ]
  - [   0.0000113770365715, -0.0000363122671843,  0.1873330473899841 ]
  - [   0.0000068023800850,  0.0000332165509462,  0.1874421983957291 ]
  - [   0.0007404275238514, -0.0000047981739044,  0.1873915642499924 ]
  - [   0.0000673979520798,  0.0000024214386940,  0.1873832494020462 ]
  - [  -0.0000417251139879,  0.0000550504773855,  0.1873924434185028 ]
  - [  -0.0000387802720070, -0.0000528115779161,  0.1873922348022461 ]
- atom:    1
  displacement:
    [   0.0042293618968962,  0.0024418230237579,  0.0087263966369704 ]
  forces:
  - [  -0.0080102719366550, -0.0046247569844127, -0.0258812904357910 ]
  - [  -0.0002049041213468,  0.0000083795748651,  0.0001486465334892 ]
  - [  -0.0002020669053309,  0.0000086603686213,  0.0001467540860176 ]
  - [  -0.0000945188803598, -0.0001809280365705,  0.0001486726105213 ]
  - [   0.0000040329759941,  0.0000016256235540,  0.0000081174075603 ]
  - [   0.0000972429988906,  0.0000534635037184,  0.0001813545823097 ]
  - [  -0.0000922279432416, -0.0001778108999133,  0.0001469135750085 ]
  - [   0.0000958358868957,  0.0000569229014218,  0.0001814253628254 ]
  - [   0.0000028838403523,  0.0000024731270969,  0.0000071618705988 ]
  - [   0.0000729298335500,  0.0000416631810367,  0.0000619962811470 ]
  - [  -0.0000542729394510,  0.0000378208351322, -0.0000022426247597 ]
  - [  -0.0000519119203091,  0.0000366635504179, -0.0000007562339306 ]
  - [   0.0000052737304941, -0.0000674510956742, -0.0000025667250156 ]
  - [  -0.0000145364456330, -0.0000085649080575,  0.0000174902379513 ]
  - [   0.0000212411978282,  0.0000115728762466,  0.0000693909823895 ]
  - [   0.0000044443877414, -0.0000638974597678, -0.0000003725290298 ]
  - [   0.0000212956219912,  0.0000139627663884,  0.0000701993703842 ]
  - [  -0.0000122353667393, -0.0000060944294091,  0.0000173971056938 ]
  - [   0.0032241325825453, -0.0021195807494223,  0.0086674429476261 ]
  - [   0.0000477465800941, -0.0000294172496069,  0.0074400529265404 ]
  - [   0.0008217268041335,  0.0004739025607705,  0.0067331530153751 ]
  - [  -0.0000097632691904, -0.0000047121429816,  0.0074832513928413 ]
  - [  -0.0000319330720231, -0.0000010129879229,  0.0074304044246674 ]
  - [  -0.0002251463010907,  0.0038522367831320,  0.0086677521467209 ]
  - [  -0.0000169392151292, -0.0000258698419202,  0.0074303857982159 ]
  - [   0.0000268404837698,  0.0000152271240950,  0.0074618496000767 ]
  - [  -0.0000021414598450,  0.0000557950843358,  0.0074400193989277 ]
  - [   0.0000443433855253,  0.0002330690622330,  0.0075591802597046 ]
  - [   0.0000242220703512,  0.0000149384140968,  0.0075001157820225 ]
  - [   0.0000203876988962,  0.0000117626041174,  0.0067192316055298 ]
  - [  -0.0000468362122774, -0.0000270120799541,  0.0076760053634644 ]
  - [  -0.0000179503113031,  0.0000146282836795,  0.0074684396386147 ]
  - [   0.0002256324514747, -0.0000780131667852,  0.0075596384704113 ]
  - [   0.0000041099265218, -0.0000235587358475,  0.0074681825935841 ]
  - [  -0.0000096559524536, -0.0000047497451305,  0.0074316188693047 ]
  - [   0.0000256421044469,  0.0000142069111462,  0.0075003877282143 ]
  - [   0.0002337931655347, -0.0000830998178571, -0.0073266215622425 ]
  - [  -0.0000180137576535,  0.0000151179847308, -0.0074248760938644 ]
  - [  -0.0000479588052258, -0.0000284683774225, -0.0072121433913708 ]
  - [   0.0000189809361473,  0.0000120764598250, -0.0081811845302582 ]
  - [   0.0000243896301981,  0.0000162104843184, -0.0073927827179432 ]
  - [   0.0000421592267230,  0.0002432545879856, -0.0073269009590149 ]
  - [   0.0000267405994236,  0.0000138666946441, -0.0073925107717514 ]
  - [  -0.0000086515210569, -0.0000056466087699, -0.0074621848762035 ]
  - [   0.0000037597492337, -0.0000237554777414, -0.0074254535138607 ]
  - [  -0.0002150069922209,  0.0038133352063596, -0.0062220133841038 ]
  - [  -0.0000306802685373, -0.0000028982758522, -0.0074606835842133 ]
  - [  -0.0000110190012492, -0.0000064326450229, -0.0074097029864788 ]
  - [   0.0008003609254956,  0.0004616919904947, -0.0081538334488869 ]
  - [   0.0000472310930490, -0.0000302474945784, -0.0074540525674820 ]
  - [   0.0031963754445314, -0.0020924182608724, -0.0062221437692642 ]
  - [  -0.0000038193538785,  0.0000554954167455, -0.0074538066983223 ]
  - [   0.0000246288254857,  0.0000150259584188, -0.0074325054883957 ]
  - [  -0.0000170869752765, -0.0000243494287133, -0.0074611194431782 ]
  - [   0.0003132417332381, -0.0008043517009355, -0.1872415542602539 ]
  - [   0.0000021113082767,  0.0000313017517328, -0.1873379945755005 ]
  - [   0.0000040335580707,  0.0000022966414690, -0.1873773336410522 ]
  - [   0.0008458578959107,  0.0004877923056483, -0.1880796700716019 ]
  - [  -0.0000562360510230, -0.0000169537961483, -0.1873741000890732 ]
  - [  -0.0005382988601923,  0.0006741589168087, -0.1872415542602539 ]
  - [  -0.0000433512032032, -0.0000424552708864, -0.1873750090599060 ]
  - [   0.0000073714181781,  0.0000034580007195, -0.1873863786458969 ]
  - [   0.0000266507267952, -0.0000133654102683, -0.1873386055231094 ]
  - [   0.0000176387839019,  0.0001300666481256, -0.1873798221349716 ]
  - [  -0.0000616940669715,  0.0000061467289925, -0.1873668879270554 ]
  - [   0.0000525433570147,  0.0000296905636787, -0.1874169707298279 ]
  - [  -0.0004825665964745, -0.0002780267968774, -0.1765053868293762 ]
  - [   0.0000260208216787, -0.0000451356172562, -0.1874094903469086 ]
  - [   0.0001207765890285, -0.0000487035140395, -0.1873800307512283 ]
  - [  -0.0000268907169811,  0.0000461181625724, -0.1874100565910339 ]
  - [  -0.0000318813254125, -0.0000184284290299, -0.1874082833528519 ]
  - [  -0.0000248770811595, -0.0000573447905481, -0.1873676329851151 ]
  - [   0.0001247785985470, -0.0000503640621901,  0.1873944550752640 ]
  - [   0.0000239126384258, -0.0000461786985397,  0.1873662769794464 ]
  - [  -0.0005153790116310, -0.0002960804849863,  0.1985761970281601 ]
  - [   0.0000551305711269,  0.0000310000032187,  0.1873567849397659 ]
  - [  -0.0000619050115347,  0.0000080764293671,  0.1874096691608429 ]
  - [   0.0000201482325792,  0.0001332480460405,  0.1873947829008102 ]
  - [  -0.0000234283506870, -0.0000583920627832,  0.1874101907014847 ]
  - [  -0.0000307299196720, -0.0000185742974281,  0.1873696148395538 ]
  - [  -0.0000278092920780,  0.0000461644231109,  0.1873669028282166 ]
  - [  -0.0005346182733774,  0.0006716214120388,  0.1875357031822205 ]
  - [  -0.0000547561794519, -0.0000171307474375,  0.1874006092548370 ]
  - [   0.0008007485303096,  0.0004615634679794,  0.1866744756698608 ]
  - [   0.0000053532421589,  0.0000005383044481,  0.1873983740806580 ]
  - [   0.0000010821968317,  0.0000292602926493,  0.1874372661113739 ]
  - [   0.0003134831786156, -0.0008009094744921,  0.1875358223915100 ]
  - [   0.0000286139547825, -0.0000126417726278,  0.1874374300241470 ]
  - [   0.0000098608434200,  0.0000070314854383,  0.1873903721570969 ]
  - [  -0.0000436585396528, -0.0000387988984585,  0.1874008476734161 ]
- atom:   19
  displacement:
    [   0.0100000000000000,  0.0000000000000000,  0.0000000000000000 ]
  forces:
  - [   0.0047108512371778, -0.0030060042627156,  0.0022047124803066 ]
  - [   0.0047990181483328,  0.0030799088999629, -0.0022477768361568 ]
  - [   0.0001049818238243,  0.0000002449378371,  0.0000033117830753 ]
  - [  -0.0000396117102355,  0.0000010612420738,  0.0000014565885067 ]
  - [   0.0000296934158541,  0.0000446378253400, -0.0000281669199467 ]
  - [   0.0000277126673609, -0.0000444883480668,  0.0000305101275444 ]
  - [  -0.0000492269173265, -0.0000044303014874,  0.0000161100178957 ]
  - [  -0.0005131298676133,  0.0000155097804964,  0.0000060535967350 ]
  - [  -0.0000490956008434,  0.0000048521906137, -0.0000111442059278 ]
  - [   0.0000806640018709, -0.0000046062050387,  0.0000112690031528 ]
  - [   0.0000946997315623, -0.0000216797343455, -0.0000213570892811 ]
  - [   0.0000417951378040,  0.0000241041416302,  0.0000008679926395 ]
  - [  -0.0000072896946222, -0.0000089175300673,  0.0000079497694969 ]
  - [   0.0000655205658404,  0.0000007063208614, -0.0000037252902985 ]
  - [  -0.0000129566778924,  0.0000043713953346, -0.0000073499977589 ]
  - [   0.0001949823927134,  0.0000752589257900, -0.0001684352755547 ]
  - [   0.0002018549130298, -0.0000667436688673,  0.0001857727766037 ]
  - [  -0.0000172425643541, -0.0000076323340181, -0.0000110343098640 ]
  - [  -0.0264060497283936,  0.0000830166391097,  0.0073820948600769 ]
  - [  -0.0001012119464576, -0.0000043271866161,  0.0074654556810856 ]
  - [  -0.0001134864869528,  0.0000077118456829,  0.0074229799211025 ]
  - [   0.0001418175088475, -0.0001364216586808,  0.0073756836354733 ]