phonopy:
  version: "2.37.1"
  frequency_unit_conversion_factor: 15.633302
  symmetry_tolerance: 1.00000e-05

space_group:
  type: "P1"
  number: 1
  Hall_symbol: "P 1"

primitive_matrix:
- [ -1.000000000000000,  0.000000000000000, -0.000000000000000 ]
- [  0.000000000000000,  0.000000000000000, -1.000000000000000 ]
- [  0.000000000000000, -1.000000000000000,  0.000000000000000 ]

supercell_matrix:
- [   4,   0,   0 ]
- [   0,   2,   0 ]
- [   0,   0,   2 ]

primitive_cell:
  lattice:
  - [    -3.265694260642430,     0.000000000000000,     0.000000000000000 ] # a
  - [    -0.000567260803808,    -0.002012328588741,    -5.654601474184788 ] # b
  - [    -0.000478830408348,    -6.221503108659303,     0.000000000000000 ] # c
  points:
  - symbol: Sn # 1
    coordinates: [  0.695611907500597,  0.381256538260716,  0.635226756111210 ]
    mass: 118.710000
  - symbol: Sn # 2
    coordinates: [  0.232423472929220,  0.881594617934699,  0.135192579577991 ]
    mass: 118.710000
  - symbol: Sn # 3
    coordinates: [  0.195139300195749,  0.881143793335600,  0.635232924850304 ]
    mass: 118.710000
  - symbol: Sn # 4
    coordinates: [  0.731949628948910,  0.381553992896838,  0.135185355284180 ]
    mass: 118.710000
  reciprocal_lattice: # without 2pi
  - [    -0.306213601209343,     0.000023567356818,     0.000030710484034 ] # a*
  - [    -0.000000000000000,    -0.000000000000000,    -0.176847122571829 ] # b*
  - [    -0.000000000000000,    -0.160732861904090,     0.000057200730173 ] # c*

unit_cell:
  lattice:
  - [     3.265694260642430,     0.000000000000000,     0.000000000000000 ] # a
  - [     0.000478830408348,     6.221503108659305,     0.000000000000000 ] # b
  - [     0.000567260803808,     0.002012328588741,     5.654601474184788 ] # c
  points:
  - symbol: Sn # 1
    coordinates: [  0.304388092499403,  0.364773243888790,  0.618743461739284 ]
    mass: 118.710000
    reduced_to: 1
  - symbol: Sn # 2
    coordinates: [  0.767576527070780,  0.864807420422008,  0.118405382065301 ]
    mass: 118.710000
    reduced_to: 2
  - symbol: Sn # 3
    coordinates: [  0.804860699804251,  0.364767075149695,  0.118856206664400 ]
    mass: 118.710000
    reduced_to: 3
  - symbol: Sn # 4
    coordinates: [  0.268050371051090,  0.864814644715820,  0.618446007103162 ]
    mass: 118.710000
    reduced_to: 4

supercell:
  lattice:
  - [    13.062777042569719,     0.000000000000000,     0.000000000000000 ] # a
  - [     0.000957660816695,    12.443006217318610,     0.000000000000000 ] # b
  - [     0.001134521607616,     0.004024657177483,    11.309202948369576 ] # c
  points:
  - symbol: Sn # 1
    coordinates: [  0.076097023124851,  0.182386621944395,  0.309371730869642 ]
    mass: 118.710000
    reduced_to: 1
  - symbol: Sn # 2
    coordinates: [  0.326097023124851,  0.182386621944395,  0.309371730869642 ]
    mass: 118.710000
    reduced_to: 1
  - symbol: Sn # 3
    coordinates: [  0.576097023124851,  0.182386621944395,  0.309371730869642 ]
    mass: 118.710000
    reduced_to: 1
  - symbol: Sn # 4
    coordinates: [  0.826097023124851,  0.182386621944395,  0.309371730869642 ]
    mass: 118.710000
    reduced_to: 1
  - symbol: Sn # 5
    coordinates: [  0.076097023124851,  0.682386621944395,  0.309371730869642 ]
    mass: 118.710000
    reduced_to: 1
  - symbol: Sn # 6
    coordinates: [  0.326097023124851,  0.682386621944395,  0.309371730869642 ]
    mass: 118.710000
    reduced_to: 1
  - symbol: Sn # 7
    coordinates: [  0.576097023124851,  0.682386621944395,  0.309371730869642 ]
    mass: 118.710000
    reduced_to: 1
  - symbol: Sn # 8
    coordinates: [  0.826097023124851,  0.682386621944395,  0.309371730869642 ]
    mass: 118.710000
    reduced_to: 1
  - symbol: Sn # 9
    coordinates: [  0.076097023124851,  0.182386621944395,  0.809371730869642 ]
    mass: 118.710000
    reduced_to: 1
  - symbol: Sn # 10
    coordinates: [  0.326097023124851,  0.182386621944395,  0.809371730869642 ]
    mass: 118.710000
    reduced_to: 1
  - symbol: Sn # 11
    coordinates: [  0.576097023124851,  0.182386621944395,  0.809371730869642 ]
    mass: 118.710000
    reduced_to: 1
  - symbol: Sn # 12
    coordinates: [  0.826097023124851,  0.182386621944395,  0.809371730869642 ]
    mass: 118.710000
    reduced_to: 1
  - symbol: Sn # 13
    coordinates: [  0.076097023124851,  0.682386621944395,  0.809371730869642 ]
    mass: 118.710000
    reduced_to: 1
  - symbol: Sn # 14
    coordinates: [  0.326097023124851,  0.682386621944395,  0.809371730869642 ]
    mass: 118.710000
    reduced_to: 1
  - symbol: Sn # 15
    coordinates: [  0.576097023124851,  0.682386621944395,  0.809371730869642 ]
    mass: 118.710000
    reduced_to: 1
  - symbol: Sn # 16
    coordinates: [  0.826097023124851,  0.682386621944395,  0.809371730869642 ]
    mass: 118.710000
    reduced_to: 1
  - symbol: Sn # 17
    coordinates: [  0.191894131767695,  0.432403710211004,  0.059202691032651 ]
    mass: 118.710000
    reduced_to: 17
  - symbol: Sn # 18
    coordinates: [  0.441894131767695,  0.432403710211004,  0.059202691032651 ]
    mass: 118.710000
    reduced_to: 17
  - symbol: Sn # 19
    coordinates: [  0.691894131767695,  0.432403710211004,  0.059202691032651 ]
    mass: 118.710000
    reduced_to: 17
  - symbol: Sn # 20
    coordinates: [  0.941894131767695,  0.432403710211004,  0.059202691032651 ]
    mass: 118.710000
    reduced_to: 17
  - symbol: Sn # 21
    coordinates: [  0.191894131767695,  0.932403710211004,  0.059202691032651 ]
    mass: 118.710000
    reduced_to: 17
  - symbol: Sn # 22
    coordinates: [  0.441894131767695,  0.932403710211004,  0.059202691032651 ]
    mass: 118.710000
    reduced_to: 17
  - symbol: Sn # 23
    coordinates: [  0.691894131767695,  0.932403710211004,  0.059202691032651 ]
    mass: 118.710000
    reduced_to: 17
  - symbol: Sn # 24
    coordinates: [  0.941894131767695,  0.932403710211004,  0.059202691032651 ]
    mass: 118.710000
    reduced_to: 17
  - symbol: Sn # 25
    coordinates: [  0.191894131767695,  0.432403710211004,  0.559202691032651 ]
    mass: 118.710000
    reduced_to: 17
  - symbol: Sn # 26
    coordinates: [  0.441894131767695,  0.432403710211004,  0.559202691032651 ]
    mass: 118.710000
    reduced_to: 17
  - symbol: Sn # 27
    coordinates: [  0.691894131767695,  0.432403710211004,  0.559202691032651 ]
    mass: 118.710000
    reduced_to: 17
  - symbol: Sn # 28
    coordinates: [  0.941894131767695,  0.432403710211004,  0.559202691032651 ]
    mass: 118.710000
    reduced_to: 17
  - symbol: Sn # 29
    coordinates: [  0.191894131767695,  0.932403710211004,  0.559202691032651 ]
    mass: 118.710000
    reduced_to: 17
  - symbol: Sn # 30
    coordinates: [  0.441894131767695,  0.932403710211004,  0.559202691032651 ]
    mass: 118.710000
    reduced_to: 17
  - symbol: Sn # 31
    coordinates: [  0.691894131767695,  0.932403710211004,  0.559202691032651 ]
    mass: 118.710000
    reduced_to: 17
  - symbol: Sn # 32
    coordinates: [  0.941894131767695,  0.932403710211004,  0.559202691032651 ]
    mass: 118.710000
    reduced_to: 17
  - symbol: Sn # 33
    coordinates: [  0.201215174951063,  0.182383537574848,  0.059428103332200 ]
    mass: 118.710000
    reduced_to: 33
  - symbol: Sn # 34
    coordinates: [  0.451215174951063,  0.182383537574848,  0.059428103332200 ]
    mass: 118.710000
    reduced_to: 33
  - symbol: Sn # 35
    coordinates: [  0.701215174951063,  0.182383537574848,  0.059428103332200 ]
    mass: 118.710000
    reduced_to: 33
  - symbol: Sn # 36
    coordinates: [  0.951215174951063,  0.182383537574848,  0.059428103332200 ]
    mass: 118.710000
    reduced_to: 33
  - symbol: Sn # 37
    coordinates: [  0.201215174951063,  0.682383537574848,  0.059428103332200 ]
    mass: 118.710000
    reduced_to: 33
  - symbol: Sn # 38
    coordinates: [  0.451215174951063,  0.682383537574848,  0.059428103332200 ]
    mass: 118.710000
    reduced_to: 33
  - symbol: Sn # 39
    coordinates: [  0.701215174951063,  0.682383537574848,  0.059428103332200 ]
    mass: 118.710000
    reduced_to: 33
  - symbol: Sn # 40
    coordinates: [  0.951215174951063,  0.682383537574848,  0.059428103332200 ]
    mass: 118.710000
    reduced_to: 33
  - symbol: Sn # 41
    coordinates: [  0.201215174951063,  0.182383537574848,  0.559428103332200 ]
    mass: 118.710000
    reduced_to: 33
  - symbol: Sn # 42
    coordinates: [  0.451215174951063,  0.182383537574848,  0.559428103332200 ]
    mass: 118.710000
    reduced_to: 33
  - symbol: Sn # 43
    coordinates: [  0.701215174951063,  0.182383537574848,  0.559428103332200 ]
    mass: 118.710000
    reduced_to: 33
  - symbol: Sn # 44
    coordinates: [  0.951215174951063,  0.182383537574848,  0.559428103332200 ]
    mass: 118.710000
    reduced_to: 33
  - symbol: Sn # 45
    coordinates: [  0.201215174951063,  0.682383537574848,  0.559428103332200 ]
    mass: 118.710000
    reduced_to: 33
  - symbol: Sn # 46
    coordinates: [  0.451215174951063,  0.682383537574848,  0.559428103332200 ]
    mass: 118.710000
    reduced_to: 33
  - symbol: Sn # 47
    coordinates: [  0.701215174951063,  0.682383537574848,  0.559428103332200 ]
    mass: 118.710000
    reduced_to: 33
  - symbol: Sn # 48
    coordinates: [  0.951215174951063,  0.682383537574848,  0.559428103332200 ]
    mass: 118.710000
    reduced_to: 33
  - symbol: Sn # 49
    coordinates: [  0.067012592762773,  0.432407322357910,  0.309223003551581 ]
    mass: 118.710000
    reduced_to: 49
  - symbol: Sn # 50
    coordinates: [  0.317012592762773,  0.432407322357910,  0.309223003551581 ]
    mass: 118.710000
    reduced_to: 49
  - symbol: Sn # 51
    coordinates: [  0.567012592762773,  0.432407322357910,  0.309223003551581 ]
    mass: 118.710000
    reduced_to: 49
  - symbol: Sn # 52
    coordinates: [  0.817012592762773,  0.432407322357910,  0.309223003551581 ]
    mass: 118.710000
    reduced_to: 49
  - symbol: Sn # 53
    coordinates: [  0.067012592762773,  0.932407322357910,  0.309223003551581 ]
    mass: 118.710000
    reduced_to: 49
  - symbol: Sn # 54
    coordinates: [  0.317012592762773,  0.932407322357910,  0.309223003551581 ]
    mass: 118.710000
    reduced_to: 49
  - symbol: Sn # 55
    coordinates: [  0.567012592762773,  0.932407322357910,  0.309223003551581 ]
    mass: 118.710000
    reduced_to: 49
  - symbol: Sn # 56
    coordinates: [  0.817012592762773,  0.932407322357910,  0.309223003551581 ]
    mass: 118.710000
    reduced_to: 49
  - symbol: Sn # 57
    coordinates: [  0.067012592762773,  0.432407322357910,  0.809223003551581 ]
    mass: 118.710000
    reduced_to: 49
  - symbol: Sn # 58
    coordinates: [  0.317012592762773,  0.432407322357910,  0.809223003551581 ]
    mass: 118.710000
    reduced_to: 49
  - symbol: Sn # 59
    coordinates: [  0.567012592762773,  0.432407322357910,  0.809223003551581 ]
    mass: 118.710000
    reduced_to: 49
  - symbol: Sn # 60
    coordinates: [  0.817012592762773,  0.432407322357910,  0.809223003551581 ]
    mass: 118.710000
    reduced_to: 49
  - symbol: Sn # 61
    coordinates: [  0.067012592762773,  0.932407322357910,  0.809223003551581 ]
    mass: 118.710000
    reduced_to: 49
  - symbol: Sn # 62
    coordinates: [  0.317012592762773,  0.932407322357910,  0.809223003551581 ]
    mass: 118.710000
    reduced_to: 49
  - symbol: Sn # 63
    coordinates: [  0.567012592762773,  0.932407322357910,  0.809223003551581 ]
    mass: 118.710000
    reduced_to: 49
  - symbol: Sn # 64
    coordinates: [  0.817012592762773,  0.932407322357910,  0.809223003551581 ]
    mass: 118.710000
    reduced_to: 49

displacements:
- atom:    1
  displacement:
    [   0.0100000000000000,  0.0000000000000000,  0.0000000000000000 ]
  forces:
  - [  -0.0465746782720089,  0.0004864132497460,  0.0002527562901378 ]
  - [  -0.0255184806883335,  0.0004908629925922,  0.0002410055021755 ]
  - [  -0.0274734459817410,  0.0004911883734167,  0.0002366172266193 ]
  - [  -0.0258196741342545,  0.0004922287771478,  0.0002316115860594 ]
  - [  -0.0300017856061459,  0.0004900576313958,  0.0002360440557823 ]
  - [  -0.0299705080688000,  0.0004896803293377,  0.0002368970162934 ]
  - [  -0.0299536138772964,  0.0004900156636722,  0.0002380902878940 ]
  - [  -0.0299649219959974,  0.0004897299222648,  0.0002351654984523 ]
  - [  -0.0311992801725864,  0.0004902089713141,  0.0002370584115852 ]
  - [  -0.0292707830667496,  0.0004910735297017,  0.0002355201286264 ]
  - [  -0.0298859532922506,  0.0004910668358207,  0.0002347406261833 ]
  - [  -0.0292828455567360,  0.0004908766131848,  0.0002352669835091 ]
  - [  -0.0299801044166088,  0.0004897064645775,  0.0002361353253946 ]
  - [  -0.0299785099923611,  0.0004895329475403,  0.0002355212927796 ]
  - [  -0.0299276895821095,  0.0004895745078102,  0.0002330144197913 ]
  - [  -0.0299783181399107,  0.0004894974990748,  0.0002346855617361 ]
  - [   0.0315763652324677, -0.0004718272830360,  0.0006265569245443 ]
  - [   0.0313085429370403, -0.0005635608686134,  0.0007921773940325 ]
  - [   0.0312816277146339, -0.0003918183792848,  0.0007251614006236 ]
  - [   0.0315767377614975, -0.0004375549033284,  0.0008473370689899 ]
  - [   0.0315766111016273, -0.0004849173128605,  0.0006248699501157 ]
  - [   0.0313084721565247, -0.0003922503092326,  0.0007912975270301 ]
  - [   0.0312824025750160, -0.0005630406085402,  0.0007247804896906 ]
  - [   0.0315755382180214, -0.0005213688709773,  0.0008436335483566 ]
  - [   0.0315768793225288, -0.0004709512286354,  0.0008954328950495 ]
  - [   0.0313081815838814, -0.0005642015021294,  0.0007294805254787 ]
  - [   0.0312823057174683, -0.0003924467600882,  0.0007962633972056 ]
  - [   0.0315764620900154, -0.0004426014784258,  0.0006727495929226 ]
  - [   0.0315755344927311, -0.0004826065851375,  0.0008940824773163 ]
  - [   0.0313080772757530, -0.0003912834799848,  0.0007292390801013 ]
  - [   0.0312819369137287, -0.0005619542789645,  0.0007967312703840 ]
  - [   0.0315778777003288, -0.0005113522056490,  0.0006694042240269 ]
  - [  -0.0311494022607803,  0.0005017543444410, -0.0037253594491631 ]
  - [  -0.0307707581669092,  0.0005021975375712, -0.0019567906856537 ]
  - [  -0.0307668596506119,  0.0005030693719164, -0.0006693864706904 ]
  - [  -0.0311639755964279,  0.0005036487709731,  0.0009511144016869 ]
  - [  -0.0314007923007011,  0.0005045642610639, -0.0012896652333438 ]
  - [  -0.0313756540417671,  0.0005048231687397, -0.0012928871437907 ]
  - [  -0.0313792750239372,  0.0005035721696913, -0.0013099638745189 ]
  - [  -0.0313964039087296,  0.0005054788198322, -0.0012972934637219 ]
  - [  -0.0311526618897915,  0.0005029178573750,  0.0010990728624165 ]
  - [  -0.0307726543396711,  0.0005024744896218, -0.0006508638616651 ]
  - [  -0.0307661592960358,  0.0005033845081925, -0.0019329951610416 ]
  - [  -0.0311716776341200,  0.0005029395688325, -0.0035400642082095 ]
  - [  -0.0314000137150288,  0.0005039738607593, -0.0013157873181626 ]
  - [  -0.0313753187656403,  0.0005044277058914, -0.0013122719246894 ]
  - [  -0.0313803479075432,  0.0005020360695198, -0.0012923583853990 ]
  - [  -0.0313970707356930,  0.0005047963932157, -0.0013072555884719 ]
  - [   0.0303395520895720, -0.0011551399948075,  0.0003069136873819 ]
  - [   0.0302275009453297, -0.0005514794029295,  0.0003063320764340 ]
  - [   0.0298091098666191, -0.0005100110429339,  0.0003063607728109 ]
  - [   0.0300758704543114, -0.0002921827253886,  0.0003065195924137 ]
  - [   0.0303372368216515,  0.0001244881423190,  0.0003062058822252 ]
  - [   0.0302280467003584, -0.0004781424358953,  0.0003064508782700 ]
  - [   0.0298094674944878, -0.0005219728918746,  0.0003060217422899 ]
  - [   0.0300757400691509, -0.0007420082692988,  0.0003068061778322 ]
  - [   0.0300963073968887, -0.0005204395856708,  0.0003045781631954 ]
  - [   0.0299391299486160, -0.0004462998185772,  0.0003055722918361 ]
  - [   0.0298543758690357, -0.0005293878493831,  0.0003058195579797 ]
  - [   0.0299717877060175, -0.0005769638810307,  0.0003049111401197 ]
  - [   0.0300966091454029, -0.0005115512758493,  0.0003058986621909 ]
  - [   0.0299411565065384, -0.0005858932854608,  0.0003054607950617 ]
  - [   0.0298526510596275, -0.0005023594712839,  0.0003050365485251 ]
  - [   0.0299715101718903, -0.0004546957206912,  0.0003045353223570 ]
- atom:    1
  displacement:
    [  -0.0100000000000000,  0.0000000000000000,  0.0000000000000000 ]
  forces:
  - [  -0.0132522005587816,  0.0004975744523108,  0.0002180834126193 ]
  - [  -0.0341102667152882,  0.0004918387858197,  0.0002317340986338 ]
  - [  -0.0324713252484798,  0.0004910755669698,  0.0002358901838306 ]
  - [  -0.0344105213880539,  0.0004907239926979,  0.0002377228083787 ]
  - [  -0.0299310237169266,  0.0004897529142909,  0.0002369116118643 ]
  - [  -0.0299656856805086,  0.0004901517531835,  0.0002367981796851 ]
  - [  -0.0299795642495155,  0.0004900306812488,  0.0002382865641266 ]
  - [  -0.0299602355808020,  0.0004895263118669,  0.0002347409172216 ]
  - [  -0.0287395734339952,  0.0004903832450509,  0.0002356599870836 ]
  - [  -0.0306526329368353,  0.0004910334246233,  0.0002364951360505 ]
  - [  -0.0300455987453461,  0.0004909959388897,  0.0002350908907829 ]
  - [  -0.0306648313999176,  0.0004912741715088,  0.0002372570888838 ]
  - [  -0.0299563184380531,  0.0004897258477286,  0.0002361164661124 ]
  - [  -0.0299543421715498,  0.0004894881276414,  0.0002354573080083 ]
  - [  -0.0299999825656414,  0.0004892465658486,  0.0002328925183974 ]
  - [  -0.0299543570727110,  0.0004897429607809,  0.0002350116119487 ]
  - [   0.0311938375234604, -0.0005009791930206,  0.0009042022284120 ]
  - [   0.0314723625779152, -0.0003978147869930,  0.0007322942838073 ]
  - [   0.0315035581588745, -0.0005662831244990,  0.0007979152142070 ]
  - [   0.0312043763697147, -0.0005257853772491,  0.0006738600786775 ]
  - [   0.0311936978250742, -0.0004554252373055,  0.0009035043185577 ]
  - [   0.0314722284674644, -0.0005583137972280,  0.0007316742558032 ]
  - [   0.0315039902925491, -0.0003880698350258,  0.0007974131731316 ]
  - [   0.0312056113034487, -0.0004274992679711,  0.0006742043187842 ]
  - [   0.0311958659440279, -0.0005039885872975,  0.0006193986628205 ]
  - [   0.0314718298614025, -0.0003986886586063,  0.0007896143943071 ]
  - [   0.0315037369728088, -0.0005675364518538,  0.0007235738448799 ]
  - [   0.0312025882303715, -0.0005220951861702,  0.0008507132297382 ]
  - [   0.0311970692127943, -0.0004548889119178,  0.0006203099619597 ]
  - [   0.0314714536070824, -0.0005568195483647,  0.0007888255640864 ]
  - [   0.0315035507082939, -0.0003868531202897,  0.0007241321727633 ]
  - [   0.0312012620270252, -0.0004352782561909,  0.0008527521276847 ]
  - [  -0.0316042862832546,  0.0005037456867285,  0.0010128272697330 ]
  - [  -0.0320150554180145,  0.0005026850849390, -0.0006469466025010 ]
  - [  -0.0320021212100983,  0.0005023882840760, -0.0019316321704537 ]
  - [  -0.0316371321678162,  0.0005018655210733, -0.0036657939199358 ]
  - [  -0.0313822329044342,  0.0005047314334661, -0.0013165886048228 ]
  - [  -0.0313978940248489,  0.0005051329499111, -0.0013122197706252 ]
  - [  -0.0314011275768280,  0.0005032401531935, -0.0012947642244399 ]
  - [  -0.0313774347305298,  0.0005051572807133, -0.0013066153042018 ]
  - [  -0.0315988510847092,  0.0005026286235079, -0.0035971840843558 ]
  - [  -0.0320152863860130,  0.0005024962592870, -0.0019557294435799 ]
  - [  -0.0319969803094864,  0.0005033811903559, -0.0006742691621184 ]
  - [  -0.0316320247948170,  0.0005026429425925,  0.0010465383529663 ]
  - [  -0.0313815437257290,  0.0005045688012615, -0.0012897888664156 ]
  - [  -0.0313974022865295,  0.0005041367257945, -0.0012932739919052 ]
  - [  -0.0314026027917862,  0.0005023507401347, -0.0013076530303806 ]
  - [  -0.0313776731491089,  0.0005040925461799, -0.0012977139558643 ]
  - [   0.0295966826379299,  0.0000554212747375,  0.0003061104507651 ]
  - [   0.0296687819063663, -0.0005429823650047,  0.0003058723232243 ]
  - [   0.0301239192485809, -0.0005220983875915,  0.0003064845805056 ]
  - [   0.0298310220241547, -0.0007613261113875,  0.0003069659578614 ]
  - [   0.0295961499214172, -0.0010897631291300,  0.0003066838835366 ]
  - [   0.0296738408505917, -0.0004932453157380,  0.0003060188319068 ]
  - [   0.0301239769905806, -0.0005095863598399,  0.0003058952279389 ]
  - [   0.0298318993300200, -0.0002700460026972,  0.0003073417465203 ]
  - [   0.0298324096947908, -0.0005147921037860,  0.0003051236271858 ]
  - [   0.0299892388284206, -0.0005894250934944,  0.0003053038963117 ]
  - [   0.0300762336701155, -0.0005065390723757,  0.0003053342225030 ]
  - [   0.0299643650650978, -0.0004574388149194,  0.0003046606143471 ]
  - [   0.0298327598720789, -0.0005174954421818,  0.0003063671174459 ]
  - [   0.0299907922744751, -0.0004425949009601,  0.0003049819788430 ]
  - [   0.0300753079354763, -0.0005252984701656,  0.0003050444356631 ]
  - [   0.0299637019634247, -0.0005742805660702,  0.0003040824085474 ]
- atom:    1
  displacement:
    [   0.0000007696378167,  0.0099999999703829,  0.0000000000000000 ]
  forces:
  - [  -0.0298559665679932, -0.0253639891743660,  0.0002385530970059 ]
  - [  -0.0299949422478676,  0.0009886967018247,  0.0002358582860325 ]
  - [  -0.0299696698784828,  0.0004885054077022,  0.0002361416263739 ]
  - [  -0.0299376025795937,  0.0009889733046293,  0.0002341737708775 ]
  - [  -0.0299664884805679,  0.0048918225802481,  0.0002357432240387 ]
  - [  -0.0299676507711411,  0.0002315693127457,  0.0002363107632846 ]
  - [  -0.0299664586782455,  0.0004685834574047,  0.0002379931975156 ]
  - [  -0.0299646221101284,  0.0002315784804523,  0.0002347439731238 ]
  - [  -0.0299692563712597,  0.0005827443674207,  0.0002367319102632 ]
  - [  -0.0299710556864738,  0.0004874374426436,  0.0002368603163632 ]
  - [  -0.0299654342234135,  0.0004547592543531,  0.0002351712755626 ]
  - [  -0.0299637094140053,  0.0004871727433056,  0.0002368509012740 ]
  - [  -0.0299680121243000,  0.0004170523607172,  0.0002362470841035 ]
  - [  -0.0299666430801153,  0.0004687031032518,  0.0002356366894674 ]
  - [  -0.0299638193100691,  0.0005254395655356,  0.0002327339316253 ]
  - [  -0.0299661532044411,  0.0004690212081186,  0.0002350615541218 ]
  - [   0.0313998237252235, -0.0001989186857827,  0.0006874634418637 ]
  - [   0.0313084386289120, -0.0004789175291080,  0.0008044901769608 ]
  - [   0.0314787402749062, -0.0004772630054504,  0.0008189741056412 ]
  - [   0.0314281769096851, -0.0002429311716696,  0.0007985768024810 ]
  - [   0.0313697829842567, -0.0001832108391682,  0.0008471917826682 ]
  - [   0.0314750298857689, -0.0004768793005496,  0.0007159672677517 ]
  - [   0.0313042104244232, -0.0004772627435159,  0.0007006505620666 ]
  - [   0.0313404574990273, -0.0002668285742402,  0.0007036547176540 ]
  - [   0.0314011611044407, -0.0002019736130023,  0.0008360373321921 ]
  - [   0.0313086658716202, -0.0004797534202226,  0.0007172336336225 ]
  - [   0.0314787402749062, -0.0004780748859048,  0.0007021917263046 ]
  - [   0.0314251855015755, -0.0002408262080280,  0.0007274820818566 ]
  - [   0.0313724689185619, -0.0001870635314845,  0.0006778554525226 ]
  - [   0.0314738973975182, -0.0004758742288686,  0.0008046415168792 ]
  - [   0.0313041880726814, -0.0004761862510350,  0.0008210561936721 ]
  - [   0.0313467495143414, -0.0002531248028390,  0.0008063901914284 ]
  - [  -0.0314070358872414,  0.0009912804234773, -0.0012751792091876 ]
  - [  -0.0313900001347065,  0.0005405226256698, -0.0013009594986215 ]
  - [  -0.0313877575099468,  0.0005409076111391, -0.0013009053654969 ]
  - [  -0.0313716344535351,  0.0009915512055159, -0.0012754618655890 ]
  - [  -0.0313910469412804,  0.0002585990296211, -0.0013043165672570 ]
  - [  -0.0313879437744617,  0.0004773430409841, -0.0013021347112954 ]
  - [  -0.0313896238803864,  0.0004757166025229, -0.0013020198093727 ]
  - [  -0.0313877537846565,  0.0002592927776277, -0.0013034876901656 ]
  - [  -0.0314053632318974,  0.0009918307187036, -0.0013293933589011 ]
  - [  -0.0313906408846378,  0.0005403500981629, -0.0013045340310782 ]
  - [  -0.0313852503895760,  0.0005413746694103, -0.0013031306443736 ]
  - [  -0.0313733629882336,  0.0009917360730469, -0.0013272436335683 ]
  - [  -0.0313907936215401,  0.0002574678801466, -0.0013018141034991 ]
  - [  -0.0313869602978230,  0.0004767952486873, -0.0013024489162490 ]
  - [  -0.0313913673162460,  0.0004742846358567, -0.0013001235201955 ]
  - [  -0.0313878841698170,  0.0002589800860733, -0.0013017228338867 ]
  - [   0.0293392315506935,  0.0085259620100260,  0.0002980742428917 ]
  - [   0.0299467556178570, -0.0003613770531956,  0.0003059529117309 ]
  - [   0.0299728047102690, -0.0005169769283384,  0.0003064089396503 ]
  - [   0.0301910173147917, -0.0004147093859501,  0.0003068033256568 ]
  - [   0.0305496640503407,  0.0078876940533519,  0.0003129627730232 ]
  - [   0.0299601666629314, -0.0003380702692084,  0.0003066646168008 ]
  - [   0.0299609582871199, -0.0005148887867108,  0.0003058079164475 ]
  - [   0.0297221187502146, -0.0004320144362282,  0.0003069609520026 ]
  - [   0.0299610793590546, -0.0005170945078135,  0.0003049375372939 ]
  - [   0.0300371348857880, -0.0005170240765437,  0.0003056498244405 ]
  - [   0.0299535952508450, -0.0005165740149096,  0.0003057511348743 ]
  - [   0.0299071222543716, -0.0005166513146833,  0.0003052228130400 ]
  - [   0.0299675129354000, -0.0005150944925845,  0.0003052842512261 ]
  - [   0.0298960208892822, -0.0005145870964043,  0.0003051697858609 ]
  - [   0.0299750231206417, -0.0005148258060217,  0.0003049172228202 ]
  - [   0.0300259888172150, -0.0005147897172719,  0.0003036346752197 ]
- atom:    1
  displacement:
    [  -0.0000007696378167, -0.0099999999703829,  0.0000000000000000 ]
  forces:
  - [  -0.0298389457166195,  0.0263469293713570,  0.0002359323552810 ]
  - [  -0.0299988500773907, -0.0000058883160818,  0.0002364686952205 ]
  - [  -0.0299700163304806,  0.0004939127829857,  0.0002360510843573 ]
  - [  -0.0299358665943146, -0.0000057294964790,  0.0002346390392631 ]
  - [  -0.0299670547246933, -0.0039120279252529,  0.0002365208347328 ]
  - [  -0.0299675557762384,  0.0007482271175832,  0.0002369569119764 ]
  - [  -0.0299667753279209,  0.0005114497616887,  0.0002379670622759 ]
  - [  -0.0299642160534859,  0.0007483024382964,  0.0002351871371502 ]
  - [  -0.0299690477550030,  0.0003978460445069,  0.0002357946505072 ]
  - [  -0.0299710035324097,  0.0004947031848133,  0.0002357096964261 ]
  - [  -0.0299657098948956,  0.0005271336995065,  0.0002352371666348 ]
  - [  -0.0299637019634247,  0.0004943064413965,  0.0002358940691920 ]
  - [  -0.0299682281911373,  0.0005617690621875,  0.0002356421755394 ]
  - [  -0.0299666859209538,  0.0005101042333990,  0.0002352396113565 ]
  - [  -0.0299639608711004,  0.0004531471349765,  0.0002326648827875 ]
  - [  -0.0299661196768284,  0.0005101265269332,  0.0002345815300941 ]
  - [   0.0313704162836075, -0.0007724777096882,  0.0008470917819068 ]
  - [   0.0314746759831905, -0.0004789971571881,  0.0007168045267463 ]
  - [   0.0313036367297173, -0.0004773843684234,  0.0007010182598606 ]
  - [   0.0313430540263653, -0.0006945054046810,  0.0007089538266882 ]
  - [   0.0313998572528362, -0.0007583985570818,  0.0006850922945887 ]
  - [   0.0313084572553635, -0.0004768865182996,  0.0008035681676120 ]
  - [   0.0314793959259987, -0.0004772059910465,  0.0008183809113689 ]
  - [   0.0314305946230888, -0.0007072739535943,  0.0008009262382984 ]
  - [   0.0313703715801239, -0.0007717956323177,  0.0006743700942025 ]
  - [   0.0314743705093861, -0.0004798246372957,  0.0008052566554397 ]
  - [   0.0313045717775822, -0.0004779975279234,  0.0008203986799344 ]
  - [   0.0313447378575802, -0.0006987937958911,  0.0008098082616925 ]
  - [   0.0313985794782639, -0.0007503579836339,  0.0008310884004459 ]
  - [   0.0313084684312344, -0.0004759392468259,  0.0007163691334426 ]
  - [   0.0314784310758114, -0.0004761522286572,  0.0007029829430394 ]
  - [   0.0314226858317852, -0.0007187221199274,  0.0007294104434550 ]
  - [  -0.0314068309962749,  0.0000147067476064, -0.0012744530104101 ]
  - [  -0.0313898101449013,  0.0004648588364944, -0.0013006903463975 ]
  - [  -0.0313881784677505,  0.0004647955065593, -0.0013001881306991 ]
  - [  -0.0313724577426910,  0.0000141155906022, -0.0012757391668856 ]
  - [  -0.0313910134136677,  0.0007504894747399, -0.0013035910669714 ]
  - [  -0.0313879176974297,  0.0005324409576133, -0.0013018768513575 ]
  - [  -0.0313895940780640,  0.0005314316367730, -0.0013019405305386 ]
  - [  -0.0313875786960125,  0.0007508681155741, -0.0013024037471041 ]
  - [  -0.0314071811735630,  0.0000137472379720, -0.0013324081664905 ]
  - [  -0.0313914492726326,  0.0004646476591006, -0.0013047971297055 ]
  - [  -0.0313852801918983,  0.0004653764190152, -0.0013037822209299 ]
  - [  -0.0313725657761097,  0.0000142911449075, -0.0013289811322466 ]
  - [  -0.0313901901245117,  0.0007506126421504, -0.0013016138691455 ]
  - [  -0.0313871391117573,  0.0005323241930455, -0.0013026898959652 ]
  - [  -0.0313910283148289,  0.0005295622977428, -0.0013003298081458 ]
  - [  -0.0313878953456879,  0.0007501170039177, -0.0013012600829825 ]
  - [   0.0305481124669313, -0.0088859712705016,  0.0003146960807499 ]
  - [   0.0299544129520655, -0.0006968320813030,  0.0003058851289097 ]
  - [   0.0299607701599598, -0.0005176649428904,  0.0003060119634029 ]
  - [   0.0297227017581463, -0.0006016907864250,  0.0003066598437726 ]
  - [   0.0293351188302040, -0.0095936236903071,  0.0002995269605890 ]
  - [   0.0299462452530861, -0.0006701943348162,  0.0003057988360524 ]
  - [   0.0299732051789761, -0.0005147057818249,  0.0003062809701078 ]
  - [   0.0301925241947174, -0.0006176622700877,  0.0003070735256188 ]
  - [   0.0299672484397888, -0.0005171630764380,  0.0003045680641662 ]
  - [   0.0298938211053610, -0.0005173722165637,  0.0003055251145270 ]
  - [   0.0299766529351473, -0.0005167115014046,  0.0003055579436477 ]
  - [   0.0300268884748220, -0.0005165949696675,  0.0003043886972591 ]
  - [   0.0299618002027273, -0.0005152233643457,  0.0003068509395234 ]