# Thermal properties / unit cell (natom)

unit:
  temperature:   K
  free_energy:   kJ/mol
  entropy:       J/K/mol
  heat_capacity: J/K/mol

natom: 18   
cutoff_frequency: 0.00000
num_modes: 99792
num_integrated_modes: 99705

zero_point_energy:      16.0599342

thermal_properties:
- temperature:         0.0000000
  free_energy:        16.0599342
  entropy:             0.0000000
  heat_capacity:       0.0000000
  energy:             16.0599342

- temperature:        10.0000000
  free_energy:        15.9951394
  entropy:            23.1157126
  heat_capacity:      58.1119007
  energy:             16.2262966

- temperature:        20.0000000
  free_energy:        15.3864538
  entropy:           104.6580717
  heat_capacity:     190.2619233
  energy:             17.4796153

- temperature:        30.0000000
  free_energy:        13.8564339
  entropy:           201.2357862
  heat_capacity:     284.7381813
  energy:             19.8935075

- temperature:        40.0000000
  free_energy:        11.3844837
  entropy:           291.5000070
  heat_capacity:     340.4519521
  energy:             23.0444840

- temperature:        50.0000000
  free_energy:         8.0616904
  entropy:           371.3150572
  heat_capacity:     373.3886041
  energy:             26.6274433

- temperature:        60.0000000
  free_energy:         3.9908998
  entropy:           441.3354668
  heat_capacity:     393.7984727
  energy:             30.4710278

- temperature:        70.0000000
  free_energy:        -0.7375426
  entropy:           503.1079122
  heat_capacity:     407.1074005
  energy:             34.4800113

- temperature:        80.0000000
  free_energy:        -6.0486845
  entropy:           558.0988201
  heat_capacity:     416.1894195
  energy:             38.5992211

- temperature:        90.0000000
  free_energy:       -11.8809527
  entropy:           607.5113465
  heat_capacity:     422.6309582
  energy:             42.7950685

- temperature:       100.0000000
  free_energy:       -18.1835093
  entropy:           652.2964808
  heat_capacity:     427.3505097
  energy:             47.0461388

- temperature:       110.0000000
  free_energy:       -24.9139664
  entropy:           693.2016501
  heat_capacity:     430.9044188
  energy:             51.3382151

- temperature:       120.0000000
  free_energy:       -32.0365915
  entropy:           730.8176315
  heat_capacity:     433.6435606
  energy:             55.6615243

- temperature:       130.0000000
  free_energy:       -39.5209370
  entropy:           765.6159982
  heat_capacity:     435.7972178
  energy:             60.0091428

- temperature:       140.0000000
  free_energy:       -47.3407959
  entropy:           797.9773801
  heat_capacity:     437.5199416
  energy:             64.3760373

- temperature:       150.0000000
  free_energy:       -55.4734029
  entropy:           828.2124551
  heat_capacity:     438.9187830
  energy:             68.7584654

- temperature:       160.0000000
  free_energy:       -63.8988164
  entropy:           856.5775325
  heat_capacity:     440.0696890
  energy:             73.1535888

- temperature:       170.0000000
  free_energy:       -72.5994359
  entropy:           883.2861978
  heat_capacity:     441.0276926
  energy:             77.5592177

- temperature:       180.0000000
  free_energy:       -81.5596208
  entropy:           908.5180944
  heat_capacity:     441.8334305
  energy:             81.9736362

- temperature:       190.0000000
  free_energy:       -90.7653856
  entropy:           932.4256155
  heat_capacity:     442.5174180
  energy:             86.3954813

- temperature:       200.0000000
  free_energy:      -100.2041548
  entropy:           955.1390585
  heat_capacity:     443.1029192
  energy:             90.8236569

- temperature:       210.0000000
  free_energy:      -109.8645622
  entropy:           976.7706381
  heat_capacity:     443.6079135
  energy:             95.2572718

- temperature:       220.0000000
  free_energy:      -119.7362870
  entropy:           997.4176411
  heat_capacity:     444.0464693
  energy:             99.6955940

- temperature:       230.0000000
  free_energy:      -129.8099172
  entropy:          1017.1649314
  heat_capacity:     444.4297190
  energy:            104.1380170

- temperature:       240.0000000
  free_energy:      -140.0768357
  entropy:          1036.0869569
  heat_capacity:     444.7665634
  energy:            108.5840339

- temperature:       250.0000000
  free_energy:      -150.5291251
  entropy:          1054.2493713
  heat_capacity:     445.0641861
  energy:            113.0332177

- temperature:       260.0000000
  free_energy:      -161.1594858
  entropy:          1071.7103549
  heat_capacity:     445.3284354
  energy:            117.4852065

- temperature:       270.0000000
  free_energy:      -171.9611673
  entropy:          1088.5216986
  heat_capacity:     445.5641113
  energy:            121.9396913

- temperature:       280.0000000
  free_energy:      -182.9279091
  entropy:          1104.7296997
  heat_capacity:     445.7751820
  energy:            126.3964068

- temperature:       290.0000000
  free_energy:      -194.0538891
  entropy:          1120.3759073
  heat_capacity:     445.9649515
  energy:            130.8551240

- temperature:       300.0000000
  free_energy:      -205.3336798
  entropy:          1135.4977462
  heat_capacity:     446.1361881
  energy:            135.3156441

- temperature:       310.0000000
  free_energy:      -216.7622093
  entropy:          1150.1290421
  heat_capacity:     446.2912252
  energy:            139.7777938

- temperature:       320.0000000
  free_energy:      -228.3347280
  entropy:          1164.3004664
  heat_capacity:     446.4320406
  energy:            144.2414212

- temperature:       330.0000000
  free_energy:      -240.0467790
  entropy:          1178.0399145
  heat_capacity:     446.5603199
  energy:            148.7063928

- temperature:       340.0000000
  free_energy:      -251.8941714
  entropy:          1191.3728297
  heat_capacity:     446.6775062
  energy:            153.1725907

- temperature:       350.0000000
  free_energy:      -263.8729582
  entropy:          1204.3224810
  heat_capacity:     446.7848412
  energy:            157.6399101

- temperature:       360.0000000
  free_energy:      -275.9794148
  entropy:          1216.9102029
  heat_capacity:     446.8833977
  energy:            162.1082582

- temperature:       370.0000000
  free_energy:      -288.2100214
  entropy:          1229.1556036
  heat_capacity:     446.9741065
  energy:            166.5775519

- temperature:       380.0000000
  free_energy:      -300.5614462
  entropy:          1241.0767450
  heat_capacity:     447.0577784
  energy:            171.0477169

- temperature:       390.0000000
  free_energy:      -313.0305311
  entropy:          1252.6903014
  heat_capacity:     447.1351222
  energy:            175.5186864

- temperature:       400.0000000
  free_energy:      -325.6142785
  entropy:          1264.0116970
  heat_capacity:     447.2067597
  energy:            179.9904004

- temperature:       410.0000000
  free_energy:      -338.3098390
  entropy:          1275.0552278
  heat_capacity:     447.2732383
  energy:            184.4628044

- temperature:       420.0000000
  free_energy:      -351.1145012
  entropy:          1285.8341683
  heat_capacity:     447.3350412
  energy:            188.9358495

- temperature:       430.0000000
  free_energy:      -364.0256816
  entropy:          1296.3608668
  heat_capacity:     447.3925967
  energy:            193.4094911

- temperature:       440.0000000
  free_energy:      -377.0409161
  entropy:          1306.6468289
  heat_capacity:     447.4462847
  energy:            197.8836886

- temperature:       450.0000000
  free_energy:      -390.1578516
  entropy:          1316.7027926
  heat_capacity:     447.4964441
  energy:            202.3584050

- temperature:       460.0000000
  free_energy:      -403.3742388
  entropy:          1326.5387947
  heat_capacity:     447.5433772
  energy:            206.8336067

- temperature:       470.0000000
  free_energy:      -416.6879257
  entropy:          1336.1642307
  heat_capacity:     447.5873546
  energy:            211.3092627

- temperature:       480.0000000
  free_energy:      -430.0968510
  entropy:          1345.5879078
  heat_capacity:     447.6286193
  energy:            215.7853448

- temperature:       490.0000000
  free_energy:      -443.5990389
  entropy:          1354.8180933
  heat_capacity:     447.6673898
  energy:            220.2618268

- temperature:       500.0000000
  free_energy:      -457.1925938
  entropy:          1363.8625575
  heat_capacity:     447.7038630
  energy:            224.7386849

- temperature:       510.0000000
  free_energy:      -470.8756954
  entropy:          1372.7286126
  heat_capacity:     447.7382167
  energy:            229.2158970

- temperature:       520.0000000
  free_energy:      -484.6465944
  entropy:          1381.4231483
  heat_capacity:     447.7706119
  energy:            233.6934427

- temperature:       530.0000000
  free_energy:      -498.5036084
  entropy:          1389.9526633
  heat_capacity:     447.8011948
  energy:            238.1713032

- temperature:       540.0000000
  free_energy:      -512.4451181
  entropy:          1398.3232946
  heat_capacity:     447.8300979
  energy:            242.6494610

- temperature:       550.0000000
  free_energy:      -526.4695640
  entropy:          1406.5408436
  heat_capacity:     447.8574419
  energy:            247.1279000

- temperature:       560.0000000
  free_energy:      -540.5754430
  entropy:          1414.6108001
  heat_capacity:     447.8833370
  energy:            251.6066050

- temperature:       570.0000000
  free_energy:      -554.7613054
  entropy:          1422.5383642
  heat_capacity:     447.9078837
  energy:            256.0855622

- temperature:       580.0000000
  free_energy:      -569.0257521
  entropy:          1430.3284666
  heat_capacity:     447.9311740
  energy:            260.5647585

- temperature:       590.0000000
  free_energy:      -583.3674322
  entropy:          1437.9857863
  heat_capacity:     447.9532921
  energy:            265.0441818

- temperature:       600.0000000
  free_energy:      -597.7850401
  entropy:          1445.5147680
  heat_capacity:     447.9743154
  energy:            269.5238207

- temperature:       610.0000000
  free_energy:      -612.2773138
  entropy:          1452.9196369
  heat_capacity:     447.9943149
  energy:            274.0036647

- temperature:       620.0000000
  free_energy:      -626.8430325
  entropy:          1460.2044135
  heat_capacity:     448.0133561
  energy:            278.4837038

- temperature:       630.0000000
  free_energy:      -641.4810146
  entropy:          1467.3729260
  heat_capacity:     448.0314991
  energy:            282.9639288

- temperature:       640.0000000
  free_energy:      -656.1901157
  entropy:          1474.4288229
  heat_capacity:     448.0487995
  energy:            287.4443310

- temperature:       650.0000000
  free_energy:      -670.9692273
  entropy:          1481.3755837
  heat_capacity:     448.0653088
  energy:            291.9249022

- temperature:       660.0000000
  free_energy:      -685.8172747
  entropy:          1488.2165293
  heat_capacity:     448.0810744
  energy:            296.4056347

- temperature:       670.0000000
  free_energy:      -700.7332157
  entropy:          1494.9548314
  heat_capacity:     448.0961403
  energy:            300.8865213

- temperature:       680.0000000
  free_energy:      -715.7160393
  entropy:          1501.5935214
  heat_capacity:     448.1105472
  energy:            305.3675553

- temperature:       690.0000000
  free_energy:      -730.7647638
  entropy:          1508.1354985
  heat_capacity:     448.1243331
  energy:            309.8487302

- temperature:       700.0000000
  free_energy:      -745.8784361
  entropy:          1514.5835373
  heat_capacity:     448.1375332
  energy:            314.3300400

- temperature:       710.0000000
  free_energy:      -761.0561303
  entropy:          1520.9402948
  heat_capacity:     448.1501801
  energy:            318.8114790

- temperature:       720.0000000
  free_energy:      -776.2969462
  entropy:          1527.2083168
  heat_capacity:     448.1623043
  energy:            323.2930419

- temperature:       730.0000000
  free_energy:      -791.6000090
  entropy:          1533.3900444
  heat_capacity:     448.1739342
  energy:            327.7747235

- temperature:       740.0000000
  free_energy:      -806.9644673
  entropy:          1539.4878193
  heat_capacity:     448.1850964
  energy:            332.2565190

- temperature:       750.0000000
  free_energy:      -822.3894930
  entropy:          1545.5038892
  heat_capacity:     448.1958155
  energy:            336.7384239

- temperature:       760.0000000
  free_energy:      -837.8742799
  entropy:          1551.4404129
  heat_capacity:     448.2061148
  energy:            341.2204339

- temperature:       770.0000000
  free_energy:      -853.4180430
  entropy:          1557.2994648
  heat_capacity:     448.2160158
  energy:            345.7025449

- temperature:       780.0000000
  free_energy:      -869.0200176
  entropy:          1563.0830392
  heat_capacity:     448.2255388
  energy:            350.1847530

- temperature:       790.0000000
  free_energy:      -884.6794586
  entropy:          1568.7930545
  heat_capacity:     448.2347028
  energy:            354.6670545

- temperature:       800.0000000
  free_energy:      -900.3956397
  entropy:          1574.4313570
  heat_capacity:     448.2435256
  energy:            359.1494459

- temperature:       810.0000000
  free_energy:      -916.1678527
  entropy:          1579.9997241
  heat_capacity:     448.2520240
  energy:            363.6319239

- temperature:       820.0000000
  free_energy:      -931.9954068
  entropy:          1585.4998684
  heat_capacity:     448.2602137
  energy:            368.1144853

- temperature:       830.0000000
  free_energy:      -947.8776281
  entropy:          1590.9334401
  heat_capacity:     448.2681094
  energy:            372.5971272

- temperature:       840.0000000
  free_energy:      -963.8138590
  entropy:          1596.3020304
  heat_capacity:     448.2757250
  energy:            377.0798466

- temperature:       850.0000000
  free_energy:      -979.8034573
  entropy:          1601.6071742
  heat_capacity:     448.2830736
  energy:            381.5626408

- temperature:       860.0000000
  free_energy:      -995.8457959
  entropy:          1606.8503525
  heat_capacity:     448.2901676
  energy:            386.0455072

- temperature:       870.0000000
  free_energy:     -1011.9402625
  entropy:          1612.0329952
  heat_capacity:     448.2970186
  energy:            390.5284433

- temperature:       880.0000000
  free_energy:     -1028.0862587
  entropy:          1617.1564835
  heat_capacity:     448.3036375
  energy:            395.0114468

- temperature:       890.0000000
  free_energy:     -1044.2831995
  entropy:          1622.2221515
  heat_capacity:     448.3100347
  energy:            399.4945153

- temperature:       900.0000000
  free_energy:     -1060.5305133
  entropy:          1627.2312889
  heat_capacity:     448.3162201
  energy:            403.9776468

- temperature:       910.0000000
  free_energy:     -1076.8276410
  entropy:          1632.1851429
  heat_capacity:     448.3222028
  energy:            408.4608391

- temperature:       920.0000000
  free_energy:     -1093.1740359
  entropy:          1637.0849196
  heat_capacity:     448.3279916
  energy:            412.9440902

- temperature:       930.0000000
  free_energy:     -1109.5691630
  entropy:          1641.9317863
  heat_capacity:     448.3335948
  energy:            417.4273983

- temperature:       940.0000000
  free_energy:     -1126.0124990
  entropy:          1646.7268729
  heat_capacity:     448.3390202
  energy:            421.9107615

- temperature:       950.0000000
  free_energy:     -1142.5035315
  entropy:          1651.4712733
  heat_capacity:     448.3442754
  energy:            426.3941781

- temperature:       960.0000000
  free_energy:     -1159.0417590
  entropy:          1656.1660474
  heat_capacity:     448.3493673
  energy:            430.8776465

- temperature:       970.0000000
  free_energy:     -1175.6266905
  entropy:          1660.8122221
  heat_capacity:     448.3543026
  energy:            435.3611649

- temperature:       980.0000000
  free_energy:     -1192.2578448
  entropy:          1665.4107927
  heat_capacity:     448.3590877
  energy:            439.8447320

- temperature:       990.0000000
  free_energy:     -1208.9347509
  entropy:          1669.9627243
  heat_capacity:     448.3637286
  energy:            444.3283462

- temperature:      1000.0000000
  free_energy:     -1225.6569469
  entropy:          1674.4689531
  heat_capacity:     448.3682311
  energy:            448.8120061
