# Thermal properties / unit cell (natom)

unit:
  temperature:   K
  free_energy:   kJ/mol
  entropy:       J/K/mol
  heat_capacity: J/K/mol

natom: 3    
cutoff_frequency: 0.00000
num_modes: 129735
num_integrated_modes: 129732

zero_point_energy:       8.0068486

thermal_properties:
- temperature:         0.0000000
  free_energy:         8.0068486
  entropy:             0.0000000
  heat_capacity:       0.0000000
  energy:              8.0068486

- temperature:        10.0000000
  free_energy:         8.0056742
  entropy:             0.5206183
  heat_capacity:       1.8305393
  energy:              8.0108804

- temperature:        20.0000000
  free_energy:         7.9829320
  entropy:             4.8149672
  heat_capacity:      12.8074317
  energy:              8.0792314

- temperature:        30.0000000
  free_energy:         7.8992241
  entropy:            12.1584685
  heat_capacity:      23.5221753
  energy:              8.2639782

- temperature:        40.0000000
  free_energy:         7.7383523
  entropy:            19.9889162
  heat_capacity:      30.7878001
  energy:              8.5379090

- temperature:        50.0000000
  free_energy:         7.5007919
  entropy:            27.4358297
  heat_capacity:      35.8898581
  energy:              8.8725834

- temperature:        60.0000000
  free_energy:         7.1914553
  entropy:            34.3421829
  heat_capacity:      39.8590003
  energy:              9.2519862

- temperature:        70.0000000
  free_energy:         6.8156277
  entropy:            40.7455086
  heat_capacity:      43.2331506
  energy:              9.6678133

- temperature:        80.0000000
  free_energy:         6.3779783
  entropy:            46.7184953
  heat_capacity:      46.2452224
  energy:             10.1154579

- temperature:        90.0000000
  free_energy:         5.8824749
  entropy:            52.3258072
  heat_capacity:      48.9795118
  energy:             10.5917975

- temperature:       100.0000000
  free_energy:         5.3325145
  entropy:            57.6169744
  heat_capacity:      51.4625350
  energy:             11.0942120

- temperature:       110.0000000
  free_energy:         4.7310652
  entropy:            62.6289246
  heat_capacity:      53.7051866
  energy:             11.6202469

- temperature:       120.0000000
  free_energy:         4.0807723
  entropy:            67.3898151
  heat_capacity:      55.7182901
  energy:             12.1675501

- temperature:       130.0000000
  free_energy:         3.3840307
  entropy:            71.9220359
  heat_capacity:      57.5163013
  energy:             12.7338953

- temperature:       140.0000000
  free_energy:         2.6430315
  entropy:            76.2441849
  heat_capacity:      59.1167473
  energy:             13.3172174

- temperature:       150.0000000
  free_energy:         1.8597936
  entropy:            80.3722769
  heat_capacity:      60.5386598
  energy:             13.9156352

- temperature:       160.0000000
  free_energy:         1.0361855
  entropy:            84.3204615
  heat_capacity:      61.8011696
  energy:             14.5274594

- temperature:       170.0000000
  free_energy:         0.1739416
  entropy:            88.1014511
  heat_capacity:      62.9225448
  energy:             15.1511883

- temperature:       180.0000000
  free_energy:        -0.7253248
  entropy:            91.7267830
  heat_capacity:      63.9196420
  energy:             15.7854962

- temperature:       190.0000000
  free_energy:        -1.6601104
  entropy:            95.2069902
  heat_capacity:      64.8076621
  energy:             16.4292177

- temperature:       200.0000000
  free_energy:        -2.6290131
  entropy:            98.5517204
  heat_capacity:      65.6001027
  energy:             17.0813310

- temperature:       210.0000000
  free_energy:        -3.6307228
  entropy:           101.7698272
  heat_capacity:      66.3088261
  energy:             17.7409409

- temperature:       220.0000000
  free_energy:        -4.6640147
  entropy:           104.8694448
  heat_capacity:      66.9441878
  energy:             18.4072631

- temperature:       230.0000000
  free_energy:        -5.7277418
  entropy:           107.8580522
  heat_capacity:      67.5151911
  energy:             19.0796102

- temperature:       240.0000000
  free_energy:        -6.8208287
  entropy:           110.7425304
  heat_capacity:      68.0296452
  energy:             19.7573786

- temperature:       250.0000000
  free_energy:        -7.9422664
  entropy:           113.5292150
  heat_capacity:      68.4943174
  energy:             20.4400373

- temperature:       260.0000000
  free_energy:        -9.0911065
  entropy:           116.2239430
  heat_capacity:      68.9150719
  energy:             21.1271186

- temperature:       270.0000000
  free_energy:       -10.2664568
  entropy:           118.8320968
  heat_capacity:      69.2969942
  energy:             21.8182094

- temperature:       280.0000000
  free_energy:       -11.4674765
  entropy:           121.3586441
  heat_capacity:      69.6444995
  energy:             22.5129438

- temperature:       290.0000000
  free_energy:       -12.6933730
  entropy:           123.8081740
  heat_capacity:      69.9614276
  energy:             23.2109975

- temperature:       300.0000000
  free_energy:       -13.9433974
  entropy:           126.1849304
  heat_capacity:      70.2511238
  energy:             23.9120817

- temperature:       310.0000000
  free_energy:       -15.2168421
  entropy:           128.4928423
  heat_capacity:      70.5165088
  energy:             24.6159390

- temperature:       320.0000000
  free_energy:       -16.5130370
  entropy:           130.7355511
  heat_capacity:      70.7601380
  energy:             25.3223394

- temperature:       330.0000000
  free_energy:       -17.8313471
  entropy:           132.9164358
  heat_capacity:      70.9842523
  energy:             26.0310767

- temperature:       340.0000000
  free_energy:       -19.1711701
  entropy:           135.0386354
  heat_capacity:      71.1908213
  energy:             26.7419660

- temperature:       350.0000000
  free_energy:       -20.5319339
  entropy:           137.1050697
  heat_capacity:      71.3815801
  energy:             27.4548405

- temperature:       360.0000000
  free_energy:       -21.9130947
  entropy:           139.1184574
  heat_capacity:      71.5580611
  energy:             28.1695500

- temperature:       370.0000000
  free_energy:       -23.3141347
  entropy:           141.0813334
  heat_capacity:      71.7216205
  energy:             28.8859586

- temperature:       380.0000000
  free_energy:       -24.7345609
  entropy:           142.9960638
  heat_capacity:      71.8734611
  energy:             29.6039433

- temperature:       390.0000000
  free_energy:       -26.1739029
  entropy:           144.8648597
  heat_capacity:      72.0146527
  energy:             30.3233924

- temperature:       400.0000000
  free_energy:       -27.6317119
  entropy:           146.6897899
  heat_capacity:      72.1461483
  energy:             31.0442041

- temperature:       410.0000000
  free_energy:       -29.1075590
  entropy:           148.4727922
  heat_capacity:      72.2687990
  energy:             31.7662859

- temperature:       420.0000000
  free_energy:       -30.6010340
  entropy:           150.2156837
  heat_capacity:      72.3833662
  energy:             32.4895531

- temperature:       430.0000000
  free_energy:       -32.1117446
  entropy:           151.9201701
  heat_capacity:      72.4905330
  energy:             33.2139285

- temperature:       440.0000000
  free_energy:       -33.6393148
  entropy:           153.5878544
  heat_capacity:      72.5909128
  energy:             33.9393412

- temperature:       450.0000000
  free_energy:       -35.1833841
  entropy:           155.2202446
  heat_capacity:      72.6850579
  energy:             34.6657260

- temperature:       460.0000000
  free_energy:       -36.7436068
  entropy:           156.8187608
  heat_capacity:      72.7734667
  energy:             35.3930232

- temperature:       470.0000000
  free_energy:       -38.3196508
  entropy:           158.3847417
  heat_capacity:      72.8565892
  energy:             36.1211777

- temperature:       480.0000000
  free_energy:       -39.9111974
  entropy:           159.9194502
  heat_capacity:      72.9348330
  energy:             36.8501387

- temperature:       490.0000000
  free_energy:       -41.5179396
  entropy:           161.4240795
  heat_capacity:      73.0085676
  energy:             37.5798594

- temperature:       500.0000000
  free_energy:       -43.1395825
  entropy:           162.8997573
  heat_capacity:      73.0781286
  energy:             38.3102962

- temperature:       510.0000000
  free_energy:       -44.7758418
  entropy:           164.3475507
  heat_capacity:      73.1438215
  energy:             39.0414090

- temperature:       520.0000000
  free_energy:       -46.4264439
  entropy:           165.7684703
  heat_capacity:      73.2059246
  energy:             39.7731607

- temperature:       530.0000000
  free_energy:       -48.0911248
  entropy:           167.1634740
  heat_capacity:      73.2646918
  energy:             40.5055164

- temperature:       540.0000000
  free_energy:       -49.7696300
  entropy:           168.5334707
  heat_capacity:      73.3203554
  energy:             41.2384442

- temperature:       550.0000000
  free_energy:       -51.4617138
  entropy:           169.8793230
  heat_capacity:      73.3731279
  energy:             41.9719139

- temperature:       560.0000000
  free_energy:       -53.1671387
  entropy:           171.2018508
  heat_capacity:      73.4232041
  energy:             42.7058977

- temperature:       570.0000000
  free_energy:       -54.8856756
  entropy:           172.5018337
  heat_capacity:      73.4707630
  energy:             43.4403696

- temperature:       580.0000000
  free_energy:       -56.6171027
  entropy:           173.7800136
  heat_capacity:      73.5159689
  energy:             44.1753051

- temperature:       590.0000000
  free_energy:       -58.3612056
  entropy:           175.0370970
  heat_capacity:      73.5589732
  energy:             44.9106816

- temperature:       600.0000000
  free_energy:       -60.1177766
  entropy:           176.2737572
  heat_capacity:      73.5999154
  energy:             45.6464777

- temperature:       610.0000000
  free_energy:       -61.8866148
  entropy:           177.4906365
  heat_capacity:      73.6389241
  energy:             46.3826735

- temperature:       620.0000000
  free_energy:       -63.6675254
  entropy:           178.6883478
  heat_capacity:      73.6761183
  energy:             47.1192502

- temperature:       630.0000000
  free_energy:       -65.4603198
  entropy:           179.8674762
  heat_capacity:      73.7116078
  energy:             47.8561902

- temperature:       640.0000000
  free_energy:       -67.2648149
  entropy:           181.0285811
  heat_capacity:      73.7454946
  energy:             48.5934770

- temperature:       650.0000000
  free_energy:       -69.0808331
  entropy:           182.1721972
  heat_capacity:      73.7778730
  energy:             49.3310950

- temperature:       660.0000000
  free_energy:       -70.9082022
  entropy:           183.2988363
  heat_capacity:      73.8088306
  energy:             50.0690297

- temperature:       670.0000000
  free_energy:       -72.7467549
  entropy:           184.4089882
  heat_capacity:      73.8384488
  energy:             50.8072672

- temperature:       680.0000000
  free_energy:       -74.5963286
  entropy:           185.5031222
  heat_capacity:      73.8668032
  energy:             51.5457945

- temperature:       690.0000000
  free_energy:       -76.4567655
  entropy:           186.5816880
  heat_capacity:      73.8939643
  energy:             52.2845993

- temperature:       700.0000000
  free_energy:       -78.3279119
  entropy:           187.6451170
  heat_capacity:      73.9199977
  energy:             53.0236700

- temperature:       710.0000000
  free_energy:       -80.2096187
  entropy:           188.6938231
  heat_capacity:      73.9449646
  energy:             53.7629957

- temperature:       720.0000000
  free_energy:       -82.1017406
  entropy:           189.7282036
  heat_capacity:      73.9689221
  energy:             54.5025659

- temperature:       730.0000000
  free_energy:       -84.0041363
  entropy:           190.7486401
  heat_capacity:      73.9919236
  energy:             55.2423709

- temperature:       740.0000000
  free_energy:       -85.9166682
  entropy:           191.7554994
  heat_capacity:      74.0140191
  energy:             55.9824014

- temperature:       750.0000000
  free_energy:       -87.8392022
  entropy:           192.7491342
  heat_capacity:      74.0352552
  energy:             56.7226484

- temperature:       760.0000000
  free_energy:       -89.7716079
  entropy:           193.7298838
  heat_capacity:      74.0556757
  energy:             57.4631038

- temperature:       770.0000000
  free_energy:       -91.7137580
  entropy:           194.6980746
  heat_capacity:      74.0753216
  energy:             58.2037594

- temperature:       780.0000000
  free_energy:       -93.6655286
  entropy:           195.6540209
  heat_capacity:      74.0942315
  energy:             58.9446077

- temperature:       790.0000000
  free_energy:       -95.6267987
  entropy:           196.5980257
  heat_capacity:      74.1124414
  energy:             59.6856417

- temperature:       800.0000000
  free_energy:       -97.5974503
  entropy:           197.5303808
  heat_capacity:      74.1299853
  energy:             60.4268543

- temperature:       810.0000000
  free_energy:       -99.5773684
  entropy:           198.4513675
  heat_capacity:      74.1468952
  energy:             61.1682393

- temperature:       820.0000000
  free_energy:      -101.5664406
  entropy:           199.3612572
  heat_capacity:      74.1632011
  energy:             61.9097902

- temperature:       830.0000000
  free_energy:      -103.5645574
  entropy:           200.2603118
  heat_capacity:      74.1789313
  energy:             62.6515014

- temperature:       840.0000000
  free_energy:      -105.5716116
  entropy:           201.1487841
  heat_capacity:      74.1941125
  energy:             63.3933670

- temperature:       850.0000000
  free_energy:      -107.5874986
  entropy:           202.0269182
  heat_capacity:      74.2087699
  energy:             64.1353819

- temperature:       860.0000000
  free_energy:      -109.6121163
  entropy:           202.8949501
  heat_capacity:      74.2229271
  energy:             64.8775408

- temperature:       870.0000000
  free_energy:      -111.6453647
  entropy:           203.7531075
  heat_capacity:      74.2366065
  energy:             65.6198388

- temperature:       880.0000000
  free_energy:      -113.6871463
  entropy:           204.6016110
  heat_capacity:      74.2498295
  energy:             66.3622714

- temperature:       890.0000000
  free_energy:      -115.7373655
  entropy:           205.4406735
  heat_capacity:      74.2626158
  energy:             67.1048340

- temperature:       900.0000000
  free_energy:      -117.7959290
  entropy:           206.2705014
  heat_capacity:      74.2749846
  energy:             67.8475223

- temperature:       910.0000000
  free_energy:      -119.8627454
  entropy:           207.0912942
  heat_capacity:      74.2869537
  energy:             68.5903323

- temperature:       920.0000000
  free_energy:      -121.9377254
  entropy:           207.9032451
  heat_capacity:      74.2985400
  energy:             69.3332601

- temperature:       930.0000000
  free_energy:      -124.0207814
  entropy:           208.7065412
  heat_capacity:      74.3097598
  energy:             70.0763019

- temperature:       940.0000000
  free_energy:      -126.1118279
  entropy:           209.5013639
  heat_capacity:      74.3206282
  energy:             70.8194541

- temperature:       950.0000000
  free_energy:      -128.2107811
  entropy:           210.2878888
  heat_capacity:      74.3311597
  energy:             71.5627133

- temperature:       960.0000000
  free_energy:      -130.3175586
  entropy:           211.0662863
  heat_capacity:      74.3413681
  energy:             72.3060762

- temperature:       970.0000000
  free_energy:      -132.4320802
  entropy:           211.8367216
  heat_capacity:      74.3512663
  energy:             73.0495397

- temperature:       980.0000000
  free_energy:      -134.5542671
  entropy:           212.5993547
  heat_capacity:      74.3608668
  energy:             73.7931006

- temperature:       990.0000000
  free_energy:      -136.6840418
  entropy:           213.3543413
  heat_capacity:      74.3701814
  energy:             74.5367560

- temperature:      1000.0000000
  free_energy:      -138.8213289
  entropy:           214.1018322
  heat_capacity:      74.3792213
  energy:             75.2805033
