phonopy:
  version: "2.37.1"
  frequency_unit_conversion_factor: 15.633302
  symmetry_tolerance: 1.00000e-05

space_group:
  type: "I4_1/amd"
  number: 141
  Hall_symbol: "I 4bw 2bw -1bw"

primitive_matrix:
- [ -1.000000000000000, -0.000000000000000,  1.000000000000000 ]
- [ -0.000000000000000, -1.000000000000000,  1.000000000000000 ]
- [  0.000000000000000,  0.000000000000000,  1.000000000000000 ]

supercell_matrix:
- [   1,   0,   0 ]
- [   0,   1,   0 ]
- [   0,   0,   1 ]

primitive_cell:
  lattice:
  - [   -14.053386290162976,    -0.000000000000001,     0.000000000000000 ] # a
  - [   -12.721718101402272,    -5.971228035141524,     0.000000000000000 ] # b
  - [    13.387551326715782,     2.985613771063150,     3.058957766145932 ] # c
  points:
  - symbol: Li # 1
    coordinates: [  0.461513528812157,  0.211513522655314,  0.250000001040276 ]
    mass: 6.940000
  - symbol: Li # 2
    coordinates: [  0.211513513989479,  0.461513523340347,  0.749999988858400 ]
    mass: 6.940000
  - symbol: Li # 3
    coordinates: [  0.538486463258439,  0.788486478492934,  0.749999991847449 ]
    mass: 6.940000
  - symbol: Li # 4
    coordinates: [  0.788486481029424,  0.538486479158733,  0.250000010599849 ]
    mass: 6.940000
  - symbol: Li # 5
    coordinates: [  0.374999995816721,  0.624999993964354,  0.749999990585727 ]
    mass: 6.940000
  - symbol: Li # 6
    coordinates: [  0.625000004008978,  0.374999989977832,  0.249999996271810 ]
    mass: 6.940000
  - symbol: Sn # 7
    coordinates: [  0.875000005015679,  0.125000009299186,  0.750000012758995 ]
    mass: 118.710000
  - symbol: Sn # 8
    coordinates: [  0.124999986708019,  0.875000012988964,  0.249999998182558 ]
    mass: 118.710000
  - symbol: Sn # 9
    coordinates: [  0.293222840806465,  0.043222832387221,  0.249999995736770 ]
    mass: 118.710000
  - symbol: Sn # 10
    coordinates: [  0.043222866364438,  0.293222828844860,  0.750000011469567 ]
    mass: 118.710000
  - symbol: Sn # 11
    coordinates: [  0.706777167522001,  0.956777171423833,  0.750000014141052 ]
    mass: 118.710000
  - symbol: Sn # 12
    coordinates: [  0.956777146751888,  0.706777157663388,  0.249999988796944 ]
    mass: 118.710000
  reciprocal_lattice: # without 2pi
  - [    -0.071157227116142,     0.151600672243889,     0.163454357253287 ] # a*
  - [     0.000000000000000,    -0.167469738907116,     0.163454351757003 ] # b*
  - [    -0.000000000000000,    -0.000000000000000,     0.326908730505269 ] # c*

unit_cell:
  lattice:
  - [    14.053386290162976,     0.000000000000000,     0.000000000000000 ] # a
  - [    12.721718101402271,     5.971228035141524,     0.000000000000000 ] # b
  - [   -13.387553064849467,    -2.985614264078375,     3.058957766145934 ] # c
  points:
  - symbol: Li # 1
    coordinates: [  0.788486472228118,  0.038486478384962,  0.250000001040276 ]
    mass: 6.940000
    reduced_to: 1
  - symbol: Li # 2
    coordinates: [  0.538486474868922,  0.288486465518053,  0.749999988858400 ]
    mass: 6.940000
    reduced_to: 2
  - symbol: Li # 3
    coordinates: [  0.211513528589011,  0.961513513354516,  0.749999991847449 ]
    mass: 6.940000
    reduced_to: 3
  - symbol: Li # 4
    coordinates: [  0.461513529570424,  0.711513531441115,  0.250000010599849 ]
    mass: 6.940000
    reduced_to: 4
  - symbol: Li # 5
    coordinates: [  0.374999994769005,  0.124999996621372,  0.749999990585726 ]
    mass: 6.940000
    reduced_to: 5
  - symbol: Li # 6
    coordinates: [  0.624999992262832,  0.875000006293978,  0.249999996271810 ]
    mass: 6.940000
    reduced_to: 6
  - symbol: Sn # 7
    coordinates: [  0.875000007743316,  0.625000003459809,  0.750000012758995 ]
    mass: 118.710000
    reduced_to: 7
  - symbol: Sn # 8
    coordinates: [  0.125000011474539,  0.374999985193593,  0.249999998182557 ]
    mass: 118.710000
    reduced_to: 8
  - symbol: Sn # 9
    coordinates: [  0.956777154930305,  0.206777163349549,  0.249999995736770 ]
    mass: 118.710000
    reduced_to: 9
  - symbol: Sn # 10
    coordinates: [  0.706777145105128,  0.456777182624707,  0.750000011469566 ]
    mass: 118.710000
    reduced_to: 10
  - symbol: Sn # 11
    coordinates: [  0.043222846619051,  0.793222842717219,  0.750000014141051 ]
    mass: 118.710000
    reduced_to: 11
  - symbol: Sn # 12
    coordinates: [  0.293222842045056,  0.543222831133556,  0.249999988796944 ]
    mass: 118.710000
    reduced_to: 12

supercell:
  lattice:
  - [    14.053386290162976,     0.000000000000000,     0.000000000000000 ] # a
  - [    12.721718101402271,     5.971228035141524,     0.000000000000000 ] # b
  - [   -13.387553064849467,    -2.985614264078375,     3.058957766145934 ] # c
  points:
  - symbol: Li # 1
    coordinates: [  0.788486472228118,  0.038486478384962,  0.250000001040276 ]
    mass: 6.940000
    reduced_to: 1
  - symbol: Li # 2
    coordinates: [  0.538486474868922,  0.288486465518053,  0.749999988858400 ]
    mass: 6.940000
    reduced_to: 2
  - symbol: Li # 3
    coordinates: [  0.211513528589011,  0.961513513354516,  0.749999991847449 ]
    mass: 6.940000
    reduced_to: 3
  - symbol: Li # 4
    coordinates: [  0.461513529570424,  0.711513531441115,  0.250000010599849 ]
    mass: 6.940000
    reduced_to: 4
  - symbol: Li # 5
    coordinates: [  0.374999994769005,  0.124999996621372,  0.749999990585726 ]
    mass: 6.940000
    reduced_to: 5
  - symbol: Li # 6
    coordinates: [  0.624999992262832,  0.875000006293978,  0.249999996271810 ]
    mass: 6.940000
    reduced_to: 6
  - symbol: Sn # 7
    coordinates: [  0.875000007743316,  0.625000003459809,  0.750000012758995 ]
    mass: 118.710000
    reduced_to: 7
  - symbol: Sn # 8
    coordinates: [  0.125000011474539,  0.374999985193593,  0.249999998182557 ]
    mass: 118.710000
    reduced_to: 8
  - symbol: Sn # 9
    coordinates: [  0.956777154930305,  0.206777163349549,  0.249999995736770 ]
    mass: 118.710000
    reduced_to: 9
  - symbol: Sn # 10
    coordinates: [  0.706777145105128,  0.456777182624707,  0.750000011469566 ]
    mass: 118.710000
    reduced_to: 10
  - symbol: Sn # 11
    coordinates: [  0.043222846619051,  0.793222842717219,  0.750000014141051 ]
    mass: 118.710000
    reduced_to: 11
  - symbol: Sn # 12
    coordinates: [  0.293222842045056,  0.543222831133556,  0.249999988796944 ]
    mass: 118.710000
    reduced_to: 12

displacements:
- atom:    1
  displacement:
    [   0.0100000000000000,  0.0000000000000000,  0.0000000000000000 ]
  forces:
  - [   0.0059970431029797,  0.0059722447767854,  0.0010077208280563 ]
  - [   0.0185554772615433,  0.0041385516524315,  0.0000001993030310 ]
  - [  -0.0147593375295401, -0.0035503352992237,  0.0005717854946852 ]
  - [  -0.0175977330654860, -0.0039161802269518, -0.0000003790049163 ]
  - [   0.0013501364737749,  0.0000907040666789,  0.0002849940210581 ]
  - [  -0.0014401003718376, -0.0001485354732722,  0.0000936577562243 ]
  - [   0.0022318381816149,  0.0001652566716075, -0.0003776727244258 ]
  - [  -0.0002516517415643, -0.0000121776829474, -0.0000015236770423 ]
  - [   0.0393278896808624,  0.0088365469127893, -0.0000277385115623 ]
  - [   0.0430247560143471,  0.0087357219308615, -0.0007868665270507 ]
  - [  -0.0390480831265450, -0.0087087471038103,  0.0000004284083843 ]
  - [  -0.0373902320861816, -0.0116030294448137, -0.0007645991281606 ]
- atom:    1
  displacement:
    [  -0.0100000000000000,  0.0000000000000000,  0.0000000000000000 ]
  forces:
  - [   0.0307709127664566,  0.0022128978744149, -0.0010204240679741 ]
  - [   0.0181137435138226,  0.0040400261059403,  0.0000001967418939 ]
  - [  -0.0219747722148895, -0.0046259784139693, -0.0005898107774556 ]
  - [  -0.0190575905144215, -0.0042582089081407, -0.0000003645696722 ]
  - [  -0.0012968201190233, -0.0000944866333157, -0.0002728782128543 ]
  - [   0.0014377161860466,  0.0001433223951608, -0.0000992633868009 ]
  - [  -0.0021849852055311, -0.0001737065613270,  0.0003495942801237 ]
  - [   0.0002541500143707,  0.0000122843775898, -0.0000000725606810 ]
  - [   0.0395324267446995,  0.0087541304528713,  0.0000313669443130 ]
  - [   0.0357255674898624,  0.0088715143501759,  0.0008394136093557 ]
  - [  -0.0398150645196438, -0.0088795833289623,  0.0000005220063031 ]
  - [  -0.0415053069591522, -0.0060022240504622,  0.0007617193623446 ]
- atom:    5
  displacement:
    [   0.0100000000000000,  0.0000000000000000,  0.0000000000000000 ]
  forces:
  - [   0.0196284279227257,  0.0041793426498771,  0.0002714209258556 ]
  - [   0.0168861337006092,  0.0039437916129827, -0.0000986433587968 ]
  - [  -0.0197649784386158, -0.0042348215356469,  0.0000949362292886 ]
  - [  -0.0169807411730289, -0.0039939200505614, -0.0002867415896617 ]
  - [  -0.0100530628114939,  0.0025062353815883, -0.0000313795171678 ]
  - [   0.0000615408644080,  0.0000131956767291, -0.0000005455221981 ]
  - [   0.0022390875965357, -0.0027551138773561,  0.0000009387731552 ]
  - [   0.0006339740939438,  0.0001416497980244, -0.0000007995308806 ]
  - [   0.0434631332755089,  0.0088949725031853,  0.0008844193071127 ]
  - [   0.0391490571200848,  0.0087847905233502, -0.0000008894130588 ]
  - [  -0.0397199839353561, -0.0088028768077493,  0.0000023001339287 ]
  - [  -0.0355426073074341, -0.0086772255599499, -0.0008350186981261 ]
- atom:    7
  displacement:
    [   0.0100000000000000,  0.0000000000000000,  0.0000000000000000 ]
  forces:
  - [   0.0205325707793236,  0.0042674569413066, -0.0003500748425722 ]
  - [   0.0180864240974188,  0.0040775919333100,  0.0000005117617548 ]
  - [  -0.0185924004763365, -0.0041017336770892, -0.0000004125759006 ]
  - [  -0.0161145031452179, -0.0039281370118260,  0.0003767950111069 ]
  - [   0.0022364445030689, -0.0027556787244976,  0.0000134177971631 ]
  - [   0.0006352495402098,  0.0001410718541592, -0.0000005217734724 ]
  - [  -0.0263687651604414,  0.0004163095727563,  0.0000483579933643 ]
  - [   0.0002392707392573,  0.0000536916777492, -0.0000005875669444 ]
  - [   0.0475003570318222,  0.0094293029978871, -0.0011487025767565 ]
  - [   0.0412103012204170,  0.0090707652270794,  0.0001674615778029 ]
  - [  -0.0376255288720131, -0.0085051264613867, -0.0001633407082409 ]
  - [  -0.0317394435405731, -0.0081655122339725,  0.0010570837184787 ]
- atom:    9
  displacement:
    [   0.0100000000000000,  0.0000000000000000,  0.0000000000000000 ]
  forces:
  - [   0.0182592459022999,  0.0041318237781525, -0.0000323001295328 ]
  - [   0.0220410209149122,  0.0040109828114510,  0.0008345288224518 ]
  - [  -0.0179522056132555, -0.0040031704120338,  0.0000006710179150 ]
  - [  -0.0162750165909529, -0.0068905954249203,  0.0007645032019354 ]
  - [   0.0038932580500841,  0.0001155128702521,  0.0008387188427150 ]
  - [  -0.0002792030572891, -0.0000082976184785,  0.0000005981419235 ]
  - [   0.0077095162123442,  0.0006355457007885, -0.0010562092065811 ]
  - [   0.0018102810718119,  0.0002922920975834, -0.0001636475935811 ]
  - [   0.0162897892296314,  0.0098301908001304, -0.0006175879389048 ]
  - [   0.0402481369674206,  0.0089754583314061,  0.0000005098991096 ]
  - [  -0.0357821844518185, -0.0082823364064097, -0.0005698888562620 ]
  - [  -0.0399626269936562, -0.0088074281811714,  0.0000001145091630 ]
- atom:    9
  displacement:
    [  -0.0100000000000000,  0.0000000000000000,  0.0000000000000000 ]
  forces:
  - [   0.0184635482728481,  0.0040497835725546,  0.0000267960131168 ]
  - [   0.0147413723170757,  0.0041463794186711, -0.0007920477073640 ]
  - [  -0.0187189150601625, -0.0041743665933609,  0.0000005457550287 ]
  - [  -0.0203891564160585, -0.0012889700010419, -0.0007618329836987 ]
  - [  -0.0040273908525705, -0.0001025546807796, -0.0008801964577287 ]
  - [   0.0002902951091528,  0.0000086992513388, -0.0000026293564588 ]
  - [  -0.0080518778413534, -0.0006286641582847,  0.0011493489146233 ]
  - [  -0.0017765411175787, -0.0002737956820056,  0.0001690746867098 ]
  - [   0.0627050697803497,  0.0077474713325500,  0.0005683563649654 ]
  - [   0.0386255197227001,  0.0086139841005206,  0.0000001899898052 ]
  - [  -0.0429508276283741, -0.0093144364655018,  0.0005220319144428 ]
  - [  -0.0389110781252384, -0.0087835220620036,  0.0000003687607943 ]

force_constants:
  format: "full"
  shape: [ 12, 12 ]
  elements:
  - # (1, 1)
    - [     1.238694820708897,    -0.187961751605366,    -0.101399757978030 ]
    - [    -0.187961751605366,     2.039600637746656,     0.454678073359780 ]
    - [    -0.101399757978030,     0.454678073359780,     2.081518827685874 ]
  - # (1, 2)
    - [    -0.022085339413991,    -0.004920648638702,    -0.000000000946483 ]
    - [    -0.004920677642835,    -0.001118517835998,    -0.000000000211458 ]
    - [     0.000000003490308,     0.000000000778018,    -0.000021132998948 ]
  - # (1, 3)
    - [    -0.360770439582123,    -0.053776473730682,    -0.058072306334407 ]
    - [    -0.053776453001554,    -0.131628334186352,     0.260396930605006 ]
    - [    -0.058072317350593,     0.260397034050751,    -0.119635469788166 ]
  - # (1, 4)
    - [    -0.072991539083852,    -0.017095788384544,     0.000000009232828 ]
    - [    -0.017095783020307,    -0.000146289862951,    -0.000000000353619 ]
    - [     0.000000009267939,     0.000000003646321,     0.003666338150351 ]
  - # (1, 5)
    - [    -0.132363541858995,    -0.009265682362196,    -0.027897069263800 ]
    - [    -0.009265683181742,    -0.092882527986523,     0.125091031067925 ]
    - [    -0.027897072354989,     0.125091032362501,    -0.090816133157524 ]
  - # (1, 6)
    - [     0.143919066317184,     0.014571865355129,    -0.009658673239815 ]
    - [     0.014571866783652,     0.081828241265223,     0.043309893629750 ]
    - [    -0.009658661764393,     0.043309915139856,     0.078578559695631 ]
  - # (1, 7)
    - [    -0.220860007094367,    -0.016948682567961,     0.036357229313511 ]
    - [    -0.016948681307934,    -0.148641494049437,    -0.163026528639019 ]
    - [     0.036357222819042,    -0.163026528108111,    -0.144861692288746 ]
  - # (1, 8)
    - [     0.025306734203205,     0.001223445006222,     0.000063196301990 ]
    - [     0.001223458831996,     0.020093477819447,    -0.000283327985744 ]
    - [     0.000063183669099,    -0.000283328910574,     0.019820654727557 ]
  - # (1, 9)
    - [     0.010214204065516,    -0.004112564465568,     0.002962014279238 ]
    - [    -0.004112569256850,     0.027737850731414,    -0.013281623638517 ]
    - [     0.002961999619348,    -0.013281623408591,     0.028655042164435 ]
  - # (1, 10)
    - [    -0.364977685106903,     0.006778488171458,     0.081321947547104 ]
    - [     0.006778530115319,    -0.393861216573936,    -0.364649783643982 ]
    - [     0.081322022603087,    -0.364649906095529,    -0.395373071728960 ]
  - # (1, 11)
    - [    -0.038349077375487,    -0.008551923814213,     0.000006149907045 ]
    - [    -0.008551898861546,    -0.001909084554913,    -0.000027618481289 ]
    - [     0.000006142479409,    -0.000027619642694,    -0.000001903073031 ]
  - # (1, 12)
    - [    -0.205737195779083,     0.280059717036423,     0.076317261180817 ]
    - [     0.280059642147167,    -1.399072742512629,    -0.342207045708833 ]
    - [     0.076317225499773,    -0.342207053171729,    -1.461530019388474 ]
  - # (2, 1)
    - [    -0.022085339413991,    -0.004920677642835,     0.000000003490308 ]
    - [    -0.004920648638702,    -0.001118517835998,     0.000000000778018 ]
    - [    -0.000000000946483,    -0.000000000211458,    -0.000021132998948 ]
  - # (2, 2)
    - [     1.238694614045355,    -0.187961227670938,     0.101400009184296 ]
    - [    -0.187961227670938,     2.039600094348686,    -0.454677945624939 ]
    - [     0.101400009184296,    -0.454677945624939,     2.081519546418893 ]
  - # (2, 3)
    - [    -0.072991541578023,    -0.017095819672918,    -0.000000030919806 ]
    - [    -0.017095746567808,    -0.000146262870105,    -0.000000008348670 ]
    - [    -0.000000031041877,    -0.000000004383804,     0.003666313651642 ]
  - # (2, 4)
    - [    -0.360770406031537,    -0.053776547173522,     0.058072154597767 ]
    - [    -0.053776522517952,    -0.131628367736930,    -0.260397074468591 ]
    - [     0.058072122225664,    -0.260396975785518,    -0.119635487730484 ]
  - # (2, 5)
    - [     0.143919071001965,     0.014571849220487,     0.009658753483074 ]
    - [     0.014571858634796,     0.081828255958688,    -0.043309891978119 ]
    - [     0.009658721470104,    -0.043309880166540,     0.078578537333146 ]
  - # (2, 6)
    - [    -0.132363522562829,    -0.009265742033811,     0.027897017455376 ]
    - [    -0.009265714739907,    -0.092882506887457,    -0.125091047734701 ]
    - [     0.027897017536941,    -0.125091045732564,    -0.090816182172038 ]
  - # (2, 7)
    - [     0.025306735701496,     0.001223434087373,    -0.000063173447851 ]
    - [     0.001223460929305,     0.020093487250119,     0.000283331872901 ]
    - [    -0.000063189279692,     0.000283330234656,     0.019820643818113 ]
  - # (2, 8)
    - [    -0.220859959150019,    -0.016948811435209,    -0.036357281536463 ]
    - [    -0.016948772108860,    -0.148641473042817,     0.163026510022521 ]
    - [    -0.036357303595463,     0.163026507082308,    -0.144861750006634 ]
  - # (2, 9)
    - [    -0.364977667838336,     0.006778431182733,    -0.081322125417582 ]
    - [     0.006778514447581,    -0.393861237990207,     0.364649869545063 ]
    - [    -0.081322080176251,     0.364649740444414,    -0.395373042455482 ]
  - # (2, 10)
    - [     0.010214223676508,    -0.004112610190693,    -0.002961998034682 ]
    - [    -0.004112611410032,     0.027737850472366,     0.013281624749197 ]
    - [    -0.002962010642755,     0.013281625436706,     0.028655023727624 ]
  - # (2, 11)
    - [    -0.205737160127530,     0.280059711812106,    -0.076317173749048 ]
    - [     0.280059367260859,    -1.399072203316624,     0.342207014360453 ]
    - [    -0.076317081797912,     0.342207035361417,    -1.461530570657097 ]
  - # (2, 12)
    - [    -0.038349047723058,    -0.008551990482772,    -0.000006155105388 ]
    - [    -0.008551957618343,    -0.001909118349722,     0.000027616826868 ]
    - [    -0.000006172936574,     0.000027613345322,    -0.000001898928734 ]
  - # (3, 1)
    - [    -0.360770439582123,    -0.053776453001554,    -0.058072317350593 ]
    - [    -0.053776473730682,    -0.131628334186352,     0.260397034050751 ]
    - [    -0.058072306334407,     0.260396930605006,    -0.119635469788166 ]
  - # (3, 2)
    - [    -0.072991541578023,    -0.017095746567808,    -0.000000031041877 ]
    - [    -0.017095819672918,    -0.000146262870105,    -0.000000004383804 ]
    - [    -0.000000030919806,    -0.000000008348670,     0.003666313651642 ]
  - # (3, 3)
    - [     1.238694962704868,    -0.187961970516946,    -0.101399302694607 ]
    - [    -0.187961970516946,     2.039599745921867,     0.454678175853814 ]
    - [    -0.101399302694607,     0.454678175853814,     2.081519577980497 ]
  - # (3, 4)
    - [    -0.022085369863507,    -0.004920585755079,     0.000000004216347 ]
    - [    -0.004920610832770,    -0.001118487153888,     0.000000000939949 ]
    - [    -0.000000000063262,    -0.000000000014457,    -0.000021132766346 ]
  - # (3, 5)
    - [     0.143919061926885,     0.014571875378616,    -0.009658687453967 ]
    - [     0.014571871286427,     0.081828264402448,     0.043309909497182 ]
    - [    -0.009658714591953,     0.043309884494103,     0.078578539686041 ]
  - # (3, 6)
    - [    -0.132363565069241,    -0.009265620614251,    -0.027897093766640 ]
    - [    -0.009265655546092,    -0.092882462109092,     0.125091025540603 ]
    - [    -0.027897130463898,     0.125091015372652,    -0.090816171280825 ]
  - # (3, 7)
    - [     0.025306713109922,     0.001223506083244,     0.000063199442038 ]
    - [     0.001223485169526,     0.020093509961558,    -0.000283323297774 ]
    - [     0.000063183699970,    -0.000283328700958,     0.019820643918462 ]
  - # (3, 8)
    - [    -0.220860003841630,    -0.016948679470869,     0.036357126436383 ]
    - [    -0.016948713041882,    -0.148641431042142,    -0.163026553575815 ]
    - [     0.036357152539995,    -0.163026549733598,    -0.144861763930705 ]
  - # (3, 9)
    - [    -0.038349069871118,    -0.008551909378087,     0.000006163294452 ]
    - [    -0.008551944364567,    -0.001909096136455,    -0.000027615703701 ]
    - [     0.000006147265422,    -0.000027619773461,    -0.000001898865423 ]
  - # (3, 10)
    - [    -0.205737142551558,     0.280059333052060,     0.076316887664505 ]
    - [     0.280059671115048,    -1.399072220827378,    -0.342207126851146 ]
    - [     0.076316976075001,    -0.342207107628917,    -1.461530594171219 ]
  - # (3, 11)
    - [     0.010214168752091,    -0.004112491167942,     0.002961984213133 ]
    - [    -0.004112496436861,     0.027737905564157,    -0.013281625181781 ]
    - [     0.002961975390602,    -0.013281630648616,     0.028655022979860 ]
  - # (3, 12)
    - [    -0.364977774136565,     0.006778741958615,     0.081322067040826 ]
    - [     0.006778656571716,    -0.393861131524619,    -0.364649896888277 ]
    - [     0.081322050096945,    -0.364649761476897,    -0.395373067413818 ]
  - # (4, 1)
    - [    -0.072991539083852,    -0.017095783020307,     0.000000009267939 ]
    - [    -0.017095788384544,    -0.000146289862951,     0.000000003646321 ]
    - [     0.000000009232828,    -0.000000000353619,     0.003666338150351 ]
  - # (4, 2)
    - [    -0.360770406031537,    -0.053776522517952,     0.058072122225664 ]
    - [    -0.053776547173522,    -0.131628367736930,    -0.260396975785518 ]
    - [     0.058072154597767,    -0.260397074468591,    -0.119635487730484 ]
  - # (4, 3)
    - [    -0.022085369863507,    -0.004920610832770,    -0.000000000063262 ]
    - [    -0.004920585755079,    -0.001118487153888,    -0.000000000014457 ]
    - [     0.000000004216347,     0.000000000939949,    -0.000021132766346 ]
  - # (4, 4)
    - [     1.238694834425314,    -0.187961780854168,     0.101399555510180 ]
    - [    -0.187961780854168,     2.039600624262844,    -0.454678047760334 ]
    - [     0.101399555510180,    -0.454678047760334,     2.081518796589474 ]
  - # (4, 5)
    - [    -0.132363563812247,    -0.009265634194956,     0.027897072552673 ]
    - [    -0.009265638312733,    -0.092882503761311,    -0.125091031416437 ]
    - [     0.027897076488816,    -0.125091032522576,    -0.090816139504795 ]
  - # (4, 6)
    - [     0.143919063451315,     0.014571862211520,     0.009658750909437 ]
    - [     0.014571882279540,     0.081828243499774,    -0.043309873687604 ]
    - [     0.009658782349837,    -0.043309885626883,     0.078578556080097 ]
  - # (4, 7)
    - [    -0.220859994032945,    -0.016948707420595,    -0.036357216734933 ]
    - [    -0.016948711509977,    -0.148641509801779,     0.163026530426466 ]
    - [    -0.036357232475439,     0.163026524936845,    -0.144861683746536 ]
  - # (4, 8)
    - [     0.025306731471009,     0.001223451114878,    -0.000063175733348 ]
    - [     0.001223464338513,     0.020093480671513,     0.000283331160493 ]
    - [    -0.000063188506458,     0.000283326419418,     0.019820654866950 ]
  - # (4, 9)
    - [    -0.205737149834653,     0.280059547279405,    -0.076316798833589 ]
    - [     0.280059616120167,    -1.399072788391834,     0.342207096803791 ]
    - [    -0.076316832869908,     0.342207088718732,    -1.461529995743925 ]
  - # (4, 10)
    - [    -0.038349044053046,    -0.008551964655024,    -0.000006167093876 ]
    - [    -0.008552000022391,    -0.001909117812133,     0.000027615351372 ]
    - [    -0.000006178219139,     0.000027612375221,    -0.000001903005915 ]
  - # (4, 11)
    - [    -0.364977760701850,     0.006778696359252,    -0.081322184160735 ]
    - [     0.006778644000689,    -0.393861140811621,     0.364649717957525 ]
    - [    -0.081322166104550,     0.364649861174404,    -0.395373046435848 ]
  - # (4, 12)
    - [     0.010214198066000,    -0.004112553469283,    -0.002961967846150 ]
    - [    -0.004112554726495,     0.027737856898317,     0.013281633318382 ]
    - [    -0.002961984220281,     0.013281626167433,     0.028655043246976 ]
  - # (5, 1)
    - [    -0.132363541858995,    -0.009265683181742,    -0.027897072354989 ]
    - [    -0.009265682362196,    -0.092882527986523,     0.125091032362501 ]
    - [    -0.027897069263800,     0.125091031067925,    -0.090816133157524 ]
  - # (5, 2)
    - [     0.143919071001965,     0.014571858634796,     0.009658721470104 ]
    - [     0.014571849220487,     0.081828255958688,    -0.043309880166540 ]
    - [     0.009658753483074,    -0.043309891978119,     0.078578537333146 ]
  - # (5, 3)
    - [     0.143919061926885,     0.014571871286427,    -0.009658714591953 ]
    - [     0.014571875378616,     0.081828264402448,     0.043309884494103 ]
    - [    -0.009658687453967,     0.043309909497182,     0.078578539686041 ]
  - # (5, 4)
    - [    -0.132363563812247,    -0.009265638312733,     0.027897076488816 ]
    - [    -0.009265634194956,    -0.092882503761311,    -0.125091032522576 ]
    - [     0.027897072552673,    -0.125091031416437,    -0.090816139504795 ]
  - # (5, 5)
    - [     1.005310019766117,    -0.250629809360713,    -0.000000178186351 ]
    - [    -0.250629809360713,     2.073245175499574,    -0.000000038775281 ]
    - [    -0.000000178186351,    -0.000000038775281,     2.129139158063710 ]
  - # (5, 6)
    - [    -0.006150345602171,    -0.001325878726010,    -0.000000001219943 ]
    - [    -0.001325877578890,    -0.000500820134760,    -0.000000000275601 ]
    - [     0.000000009298014,     0.000000002070052,    -0.000205128270244 ]
  - # (5, 7)
    - [    -0.223763131299681,     0.275541993146356,     0.000000187939562 ]
    - [     0.275541995230648,    -1.397849297039942,     0.000000043373352 ]
    - [     0.000000184493479,     0.000000042604826,    -1.459299064846196 ]
  - # (5, 8)
    - [    -0.063447697738728,    -0.014133704631359,    -0.000000019638980 ]
    - [    -0.014133698614039,    -0.003224042648287,    -0.000000004882217 ]
    - [    -0.000000041623966,    -0.000000009785181,    -0.000072029270987 ]
  - # (5, 9)
    - [    -0.396034941605595,    -0.010902537526148,    -0.085955684112965 ]
    - [    -0.010902541512244,    -0.349579446012993,     0.385427049156700 ]
    - [    -0.085955695650935,     0.385427048109506,    -0.347147987533297 ]
  - # (5, 10)
    - [     0.028505052726158,     0.000869945475665,     0.000157261272000 ]
    - [     0.000869919428961,     0.024798143190702,    -0.000705228927716 ]
    - [     0.000157261042152,    -0.000705227757451,     0.024604127405876 ]
  - # (5, 11)
    - [     0.028505021521413,     0.000869989997642,    -0.000157289980053 ]
    - [     0.000870007861931,     0.024798174434208,     0.000705225096262 ]
    - [    -0.000157286625747,     0.000705224622797,     0.024604127493239 ]
  - # (5, 12)
    - [    -0.396035005025120,    -0.010902406802181,     0.085955712914752 ]
    - [    -0.010902403497603,    -0.349579375901803,    -0.385427048932986 ]
    - [     0.085955677935375,    -0.385427058259818,    -0.347148007398970 ]
  - # (6, 1)
    - [     0.143919066317184,     0.014571866783652,    -0.009658661764393 ]
    - [     0.014571865355129,     0.081828241265223,     0.043309915139856 ]
    - [    -0.009658673239815,     0.043309893629750,     0.078578559695631 ]
  - # (6, 2)
    - [    -0.132363522562829,    -0.009265714739907,     0.027897017536941 ]
    - [    -0.009265742033811,    -0.092882506887457,    -0.125091045732564 ]
    - [     0.027897017455376,    -0.125091047734701,    -0.090816182172038 ]
  - # (6, 3)
    - [    -0.132363565069241,    -0.009265655546092,    -0.027897130463898 ]
    - [    -0.009265620614251,    -0.092882462109092,     0.125091015372652 ]
    - [    -0.027897093766640,     0.125091025540603,    -0.090816171280825 ]
  - # (6, 4)
    - [     0.143919063451315,     0.014571882279540,     0.009658782349837 ]
    - [     0.014571862211520,     0.081828243499774,    -0.043309885626883 ]
    - [     0.009658750909437,    -0.043309873687604,     0.078578556080097 ]
  - # (6, 5)
    - [    -0.006150345602171,    -0.001325877578890,     0.000000009298014 ]
    - [    -0.001325878726010,    -0.000500820134760,     0.000000002070052 ]
    - [    -0.000000001219943,    -0.000000000275601,    -0.000205128270244 ]
  - # (6, 6)
    - [     1.005309832124441,    -0.250629319663568,     0.000000361932285 ]
    - [    -0.250629319663568,     2.073244556681055,     0.000000153106151 ]
    - [     0.000000361932285,     0.000000153106151,     2.129139964524503 ]
  - # (6, 7)
    - [    -0.063447703196770,    -0.014133693119054,     0.000000000088440 ]
    - [    -0.014133684975719,    -0.003224045682436,     0.000000000519676 ]
    - [    -0.000000003510328,    -0.000000000282903,    -0.000072020778777 ]
  - # (6, 8)
    - [    -0.223763012114432,     0.275541674056062,    -0.000000071023753 ]
    - [     0.275541686131342,    -1.397848876615615,    -0.000000067575116 ]
    - [    -0.000000093160708,    -0.000000072511973,    -1.459299604456119 ]
  - # (6, 9)
    - [     0.028505044191965,     0.000869956369689,    -0.000157239963745 ]
    - [     0.000869950131499,     0.024798128263075,     0.000705233305885 ]
    - [    -0.000157263641953,     0.000705229246828,     0.024604150916319 ]
  - # (6, 10)
    - [    -0.396034903285488,    -0.010902622510728,     0.085955509458544 ]
    - [    -0.010902651057766,    -0.349579344216861,    -0.385427101593005 ]
    - [     0.085955496752637,    -0.385427102900658,    -0.347148154207057 ]
  - # (6, 11)
    - [    -0.396034993731449,    -0.010902460804891,    -0.085955888217557 ]
    - [    -0.010902428865196,    -0.349579247079241,     0.385426999404074 ]
    - [    -0.085955783591762,     0.385427021211158,    -0.347148120957984 ]
  - # (6, 12)
    - [     0.028505039477474,     0.000869964474186,     0.000157310769285 ]
    - [     0.000869962106831,     0.024798133016334,    -0.000705218390776 ]
    - [     0.000157285081414,    -0.000705225341051,     0.024604150906494 ]
  - # (7, 1)