# Thermal properties / unit cell (natom)

unit:
  temperature:   K
  free_energy:   kJ/mol
  entropy:       J/K/mol
  heat_capacity: J/K/mol

natom: 11   
cutoff_frequency: 0.00000
num_modes: 179322
num_integrated_modes: 179074

zero_point_energy:      40.6002876

thermal_properties:
- temperature:         0.0000000
  free_energy:        40.6002876
  entropy:             0.0000000
  heat_capacity:       0.0000000
  energy:             40.6002876

- temperature:        10.0000000
  free_energy:        40.5905993
  entropy:             3.1671512
  heat_capacity:       7.2251732
  energy:             40.6222708

- temperature:        20.0000000
  free_energy:        40.5107828
  entropy:            13.7587018
  heat_capacity:      26.0248704
  energy:             40.7859568

- temperature:        30.0000000
  free_energy:        40.3042832
  entropy:            27.8170347
  heat_capacity:      44.1442546
  energy:             41.1387943

- temperature:        40.0000000
  free_energy:        39.9516904
  entropy:            42.7558479
  heat_capacity:      60.2213800
  energy:             41.6619243

- temperature:        50.0000000
  free_energy:        39.4488070
  entropy:            57.8192153
  heat_capacity:      75.2488196
  energy:             42.3397677

- temperature:        60.0000000
  free_energy:        38.7954619
  entropy:            72.8397875
  heat_capacity:      89.9411987
  energy:             43.1658491

- temperature:        70.0000000
  free_energy:        37.9922171
  entropy:            87.7983934
  heat_capacity:     104.4757713
  energy:             44.1381046

- temperature:        80.0000000
  free_energy:        37.0397421
  entropy:           102.6816726
  heat_capacity:     118.6807184
  energy:             45.2542759

- temperature:        90.0000000
  free_energy:        35.9389563
  entropy:           117.4526093
  heat_capacity:     132.2790383
  energy:             46.5096911

- temperature:       100.0000000
  free_energy:        34.6912416
  entropy:           132.0579340
  heat_capacity:     145.0340810
  energy:             47.8970350

- temperature:       110.0000000
  free_energy:        33.2985387
  entropy:           146.4411378
  heat_capacity:     156.7994552
  energy:             49.4070639

- temperature:       120.0000000
  free_energy:        31.7633292
  entropy:           160.5516096
  heat_capacity:     167.5164914
  energy:             51.0295223

- temperature:       130.0000000
  free_energy:        30.0885515
  entropy:           174.3489855
  heat_capacity:     177.1926907
  energy:             52.7539196

- temperature:       140.0000000
  free_energy:        28.2774913
  entropy:           187.8041439
  heat_capacity:     185.8782640
  energy:             54.5700715

- temperature:       150.0000000
  free_energy:        26.3336727
  entropy:           200.8983694
  heat_capacity:     193.6471264
  energy:             56.4684281

- temperature:       160.0000000
  free_energy:        24.2607609
  entropy:           213.6217374
  heat_capacity:     200.5834973
  energy:             58.4402389

- temperature:       170.0000000
  free_energy:        22.0624844
  entropy:           225.9713259
  heat_capacity:     206.7732949
  energy:             60.4776098

- temperature:       180.0000000
  free_energy:        19.7425727
  entropy:           237.9495519
  heat_capacity:     212.2990594
  energy:             62.5734921

- temperature:       190.0000000
  free_energy:        17.3047105
  entropy:           249.5627518
  heat_capacity:     217.2372630
  energy:             64.7216333

- temperature:       200.0000000
  free_energy:        14.7525043
  entropy:           260.8200306
  heat_capacity:     221.6571427
  energy:             66.9165104

- temperature:       210.0000000
  free_energy:        12.0894598
  entropy:           271.7323583
  heat_capacity:     225.6204499
  energy:             69.1532551

- temperature:       220.0000000
  free_energy:         9.3189665
  entropy:           282.3118795
  heat_capacity:     229.1817208
  energy:             71.4275800

- temperature:       230.0000000
  free_energy:         6.4442889
  entropy:           292.5713940
  heat_capacity:     232.3888156
  energy:             73.7357096

- temperature:       240.0000000
  free_energy:         3.4685618
  entropy:           302.5239751
  heat_capacity:     235.2835721
  energy:             76.0743158

- temperature:       250.0000000
  free_energy:         0.3947890
  entropy:           312.1826923
  heat_capacity:     237.9024833
  energy:             78.4404620

- temperature:       260.0000000
  free_energy:        -2.7741555
  entropy:           321.5604150
  heat_capacity:     240.2773509
  energy:             80.8315524

- temperature:       270.0000000
  free_energy:        -6.0355245
  entropy:           330.6696773
  heat_capacity:     242.4358864
  energy:             83.2452883

- temperature:       280.0000000
  free_energy:        -9.3866946
  entropy:           339.5225875
  heat_capacity:     244.4022527
  energy:             85.6796300

- temperature:       290.0000000
  free_energy:       -12.8251606
  entropy:           348.1307724
  heat_capacity:     246.1975410
  energy:             88.1327634

- temperature:       300.0000000
  free_energy:       -16.3485314
  entropy:           356.5053452
  heat_capacity:     247.8401883
  energy:             90.6030722

- temperature:       310.0000000
  free_energy:       -19.9545241
  entropy:           364.6568921
  heat_capacity:     249.3463385
  energy:             93.0891124

- temperature:       320.0000000
  free_energy:       -23.6409594
  entropy:           372.5954711
  heat_capacity:     250.7301541
  energy:             95.5895914

- temperature:       330.0000000
  free_energy:       -27.4057555
  entropy:           380.3306209
  heat_capacity:     252.0040845
  energy:             98.1033494

- temperature:       340.0000000
  free_energy:       -31.2469238
  entropy:           387.8713745
  heat_capacity:     253.1790954
  energy:            100.6293435

- temperature:       350.0000000
  free_energy:       -35.1625635
  entropy:           395.2262786
  heat_capacity:     254.2648669
  energy:            103.1666340

- temperature:       360.0000000
  free_energy:       -39.1508569
  entropy:           402.4034137
  heat_capacity:     255.2699619
  energy:            105.7143720

- temperature:       370.0000000
  free_energy:       -43.2100648
  entropy:           409.4104174
  heat_capacity:     256.2019720
  energy:            108.2717897

- temperature:       380.0000000
  free_energy:       -47.3385222
  entropy:           416.2545070
  heat_capacity:     257.0676416
  energy:            110.8381904

- temperature:       390.0000000
  free_energy:       -51.5346346
  entropy:           422.9425028
  heat_capacity:     257.8729753
  energy:            113.4129414

- temperature:       400.0000000
  free_energy:       -55.7968735
  entropy:           429.4808506
  heat_capacity:     258.6233305
  energy:            115.9954667

- temperature:       410.0000000
  free_energy:       -60.1237732
  entropy:           435.8756439
  heat_capacity:     259.3234967
  energy:            118.5852408

- temperature:       420.0000000
  free_energy:       -64.5139271
  entropy:           442.1326448
  heat_capacity:     259.9777647
  energy:            121.1817837

- temperature:       430.0000000
  free_energy:       -68.9659850
  entropy:           448.2573045
  heat_capacity:     260.5899856
  energy:            123.7846560

- temperature:       440.0000000
  free_energy:       -73.4786493
  entropy:           454.2547821
  heat_capacity:     261.1636230
  energy:            126.3934548

- temperature:       450.0000000
  free_energy:       -78.0506730
  entropy:           460.1299628
  heat_capacity:     261.7017977
  energy:            129.0078103

- temperature:       460.0000000
  free_energy:       -82.6808564
  entropy:           465.8874747
  heat_capacity:     262.2073269
  energy:            131.6273820

- temperature:       470.0000000
  free_energy:       -87.3680449
  entropy:           471.5317051
  heat_capacity:     262.6827579
  energy:            134.2518565

- temperature:       480.0000000
  free_energy:       -92.1111267
  entropy:           477.0668152
  heat_capacity:     263.1303987
  energy:            136.8809446

- temperature:       490.0000000
  free_energy:       -96.9090306
  entropy:           482.4967541
  heat_capacity:     263.5523433
  energy:            139.5143789

- temperature:       500.0000000
  free_energy:      -101.7607238
  entropy:           487.8252718
  heat_capacity:     263.9504951
  energy:            142.1519121

- temperature:       510.0000000
  free_energy:      -106.6652099
  entropy:           493.0559317
  heat_capacity:     264.3265869
  energy:            144.7933152

- temperature:       520.0000000
  free_energy:      -111.6215275
  entropy:           498.1921214
  heat_capacity:     264.6821987
  energy:            147.4383756

- temperature:       530.0000000
  free_energy:      -116.6287482
  entropy:           503.2370641
  heat_capacity:     265.0187732
  energy:            150.0868958

- temperature:       540.0000000
  free_energy:      -121.6859749
  entropy:           508.1938277
  heat_capacity:     265.3376300
  energy:            152.7386920

- temperature:       550.0000000
  free_energy:      -126.7923406
  entropy:           513.0653344
  heat_capacity:     265.6399776
  energy:            155.3935934

- temperature:       560.0000000
  free_energy:      -131.9470067
  entropy:           517.8543696
  heat_capacity:     265.9269242
  energy:            158.0514403

- temperature:       570.0000000
  free_energy:      -137.1491619
  entropy:           522.5635892
  heat_capacity:     266.1994878
  energy:            160.7120839

- temperature:       580.0000000
  free_energy:      -142.3980209
  entropy:           527.1955277
  heat_capacity:     266.4586043
  energy:            163.3753852

- temperature:       590.0000000
  free_energy:      -147.6928230
  entropy:           531.7526051
  heat_capacity:     266.7051357
  energy:            166.0412141

- temperature:       600.0000000
  free_energy:      -153.0328312
  entropy:           536.2371330
  heat_capacity:     266.9398764
  energy:            168.7094486

- temperature:       610.0000000
  free_energy:      -158.4173312
  entropy:           540.6513211
  heat_capacity:     267.1635599
  energy:            171.3799747

- temperature:       620.0000000
  free_energy:      -163.8456302
  entropy:           544.9972829
  heat_capacity:     267.3768639
  energy:            174.0526852

- temperature:       630.0000000
  free_energy:      -169.3170561
  entropy:           549.2770407
  heat_capacity:     267.5804156
  energy:            176.7274795

- temperature:       640.0000000
  free_energy:      -174.8309568
  entropy:           553.4925309
  heat_capacity:     267.7747957
  energy:            179.4042630

- temperature:       650.0000000
  free_energy:      -180.3866987
  entropy:           557.6456083
  heat_capacity:     267.9605429
  energy:            182.0829466

- temperature:       660.0000000
  free_energy:      -185.9836668
  entropy:           561.7380508
  heat_capacity:     268.1381570
  energy:            184.7634467

- temperature:       670.0000000
  free_energy:      -191.6212633
  entropy:           565.7715635
  heat_capacity:     268.3081026
  energy:            187.4456842

- temperature:       680.0000000
  free_energy:      -197.2989071
  entropy:           569.7477820
  heat_capacity:     268.4708117
  energy:            190.1295847

- temperature:       690.0000000
  free_energy:      -203.0160332
  entropy:           573.6682767
  heat_capacity:     268.6266867
  energy:            192.8150777

- temperature:       700.0000000
  free_energy:      -208.7720919
  entropy:           577.5345554
  heat_capacity:     268.7761024
  energy:            195.5020969

- temperature:       710.0000000
  free_energy:      -214.5665484
  entropy:           581.3480673
  heat_capacity:     268.9194085
  energy:            198.1905794

- temperature:       720.0000000
  free_energy:      -220.3988821
  entropy:           585.1102053
  heat_capacity:     269.0569315
  energy:            200.8804658

- temperature:       730.0000000
  free_energy:      -226.2685858
  entropy:           588.8223089
  heat_capacity:     269.1889767
  energy:            203.5716997

- temperature:       740.0000000
  free_energy:      -232.1751658
  entropy:           592.4856672
  heat_capacity:     269.3158293
  energy:            206.2642280

- temperature:       750.0000000
  free_energy:      -238.1181408
  entropy:           596.1015209
  heat_capacity:     269.4377566
  energy:            208.9579999

- temperature:       760.0000000
  free_energy:      -244.0970418
  entropy:           599.6710649
  heat_capacity:     269.5550087
  energy:            211.6529675

- temperature:       770.0000000
  free_energy:      -250.1114116
  entropy:           603.1954504
  heat_capacity:     269.6678205
  energy:            214.3490853

- temperature:       780.0000000
  free_energy:      -256.1608040
  entropy:           606.6757870
  heat_capacity:     269.7764122
  energy:            217.0463099

- temperature:       790.0000000
  free_energy:      -262.2447840
  entropy:           610.1131445
  heat_capacity:     269.8809904
  energy:            219.7446002

- temperature:       800.0000000
  free_energy:      -268.3629271
  entropy:           613.5085550
  heat_capacity:     269.9817497
  energy:            222.4439170

- temperature:       810.0000000
  free_energy:      -274.5148186
  entropy:           616.8630144
  heat_capacity:     270.0788728
  energy:            225.1442230

- temperature:       820.0000000
  free_energy:      -280.7000541
  entropy:           620.1774841
  heat_capacity:     270.1725317
  energy:            227.8454829

- temperature:       830.0000000
  free_energy:      -286.9182381
  entropy:           623.4528925
  heat_capacity:     270.2628884
  energy:            230.5476627

- temperature:       840.0000000
  free_energy:      -293.1689847
  entropy:           626.6901367
  heat_capacity:     270.3500958
  energy:            233.2507301

- temperature:       850.0000000
  free_energy:      -299.4519165
  entropy:           629.8900836
  heat_capacity:     270.4342978
  energy:            235.9546546

- temperature:       860.0000000
  free_energy:      -305.7666648
  entropy:           633.0535714
  heat_capacity:     270.5156303
  energy:            238.6594065

- temperature:       870.0000000
  free_energy:      -312.1128691
  entropy:           636.1814105
  heat_capacity:     270.5942217
  energy:            241.3649580

- temperature:       880.0000000
  free_energy:      -318.4901768
  entropy:           639.2743853
  heat_capacity:     270.6701933
  energy:            244.0712822

- temperature:       890.0000000
  free_energy:      -324.8982432
  entropy:           642.3332547
  heat_capacity:     270.7436598
  energy:            246.7783535

- temperature:       900.0000000
  free_energy:      -331.3367307
  entropy:           645.3587535
  heat_capacity:     270.8147296
  energy:            249.4861474

- temperature:       910.0000000
  free_energy:      -337.8053094
  entropy:           648.3515932
  heat_capacity:     270.8835056
  energy:            252.1946405

- temperature:       920.0000000
  free_energy:      -344.3036560
  entropy:           651.3124633
  heat_capacity:     270.9500849
  energy:            254.9038102

- temperature:       930.0000000
  free_energy:      -350.8314543
  entropy:           654.2420317
  heat_capacity:     271.0145598
  energy:            257.6136352

- temperature:       940.0000000
  free_energy:      -357.3883945
  entropy:           657.1409459
  heat_capacity:     271.0770178
  energy:            260.3240947

- temperature:       950.0000000
  free_energy:      -363.9741731
  entropy:           660.0098339
  heat_capacity:     271.1375418
  energy:            263.0351691

- temperature:       960.0000000
  free_energy:      -370.5884931
  entropy:           662.8493046
  heat_capacity:     271.1962105
  energy:            265.7468394

- temperature:       970.0000000
  free_energy:      -377.2310631
  entropy:           665.6599490
  heat_capacity:     271.2530987
  energy:            268.4590874

- temperature:       980.0000000
  free_energy:      -383.9015979
  entropy:           668.4423403
  heat_capacity:     271.3082776
  energy:            271.1718956

- temperature:       990.0000000
  free_energy:      -390.5998176
  entropy:           671.1970354
  heat_capacity:     271.3618147
  energy:            273.8852474

- temperature:      1000.0000000
  free_energy:      -397.3254481
  entropy:           673.9245748
  heat_capacity:     271.4137742
  energy:            276.5991267
