# Thermal properties / unit cell (natom)

unit:
  temperature:   K
  free_energy:   kJ/mol
  entropy:       J/K/mol
  heat_capacity: J/K/mol

natom: 4    
cutoff_frequency: 0.00000
num_modes: 210912
num_integrated_modes: 210902

zero_point_energy:      16.9467419

thermal_properties:
- temperature:         0.0000000
  free_energy:        16.9467419
  entropy:             0.0000000
  heat_capacity:       0.0000000
  energy:             16.9467419

- temperature:        10.0000000
  free_energy:        16.9459188
  entropy:             0.2881710
  heat_capacity:       0.8051509
  energy:             16.9488005

- temperature:        20.0000000
  free_energy:        16.9357771
  entropy:             2.0737168
  heat_capacity:       5.4911937
  energy:             16.9772515

- temperature:        30.0000000
  free_energy:        16.8991254
  entropy:             5.4267127
  heat_capacity:      11.3345812
  energy:             17.0619268

- temperature:        40.0000000
  free_energy:        16.8252752
  entropy:             9.3948849
  heat_capacity:      16.3844203
  energy:             17.2010706

- temperature:        50.0000000
  free_energy:        16.7106132
  entropy:            13.5571333
  heat_capacity:      21.0807312
  energy:             17.3884699

- temperature:        60.0000000
  free_energy:        16.5538118
  entropy:            17.8177593
  heat_capacity:      25.8243254
  energy:             17.6228773

- temperature:        70.0000000
  free_energy:        16.3539716
  entropy:            22.1643550
  heat_capacity:      30.7185770
  energy:             17.9054764

- temperature:        80.0000000
  free_energy:        16.1102561
  entropy:            26.5911515
  heat_capacity:      35.7007331
  energy:             18.2375482

- temperature:        90.0000000
  free_energy:        15.8219320
  entropy:            31.0826289
  heat_capacity:      40.6462936
  energy:             18.6193686

- temperature:       100.0000000
  free_energy:        15.4884678
  entropy:            35.6146841
  heat_capacity:      45.4315818
  energy:             19.0499362

- temperature:       110.0000000
  free_energy:        15.1095956
  entropy:            40.1595651
  heat_capacity:      49.9623808
  energy:             19.5271478

- temperature:       120.0000000
  free_energy:        14.6853247
  entropy:            44.6901065
  heat_capacity:      54.1803162
  energy:             20.0481375

- temperature:       130.0000000
  free_energy:        14.2159219
  entropy:            49.1822798
  heat_capacity:      58.0582603
  energy:             20.6096182

- temperature:       140.0000000
  free_energy:        13.7018735
  entropy:            53.6162927
  heat_capacity:      61.5922338
  energy:             21.2081544

- temperature:       150.0000000
  free_energy:        13.1438417
  entropy:            57.9767425
  heat_capacity:      64.7935428
  energy:             21.8403530

- temperature:       160.0000000
  free_energy:        12.5426221
  entropy:            62.2522599
  heat_capacity:      67.6825149
  energy:             22.5029837

- temperature:       170.0000000
  free_energy:        11.8991063
  entropy:            66.4349334
  heat_capacity:      70.2840149
  energy:             23.1930449

- temperature:       180.0000000
  free_energy:        11.2142501
  entropy:            70.5196877
  heat_capacity:      72.6244661
  energy:             23.9077939

- temperature:       190.0000000
  free_energy:        10.4890485
  entropy:            74.5036992
  heat_capacity:      74.7299986
  energy:             24.6447514

- temperature:       200.0000000
  free_energy:         9.7245156
  entropy:            78.3858895
  heat_capacity:      76.6253809
  energy:             25.4016935

- temperature:       210.0000000
  free_energy:         8.9216694
  entropy:            82.1665024
  heat_capacity:      78.3334720
  energy:             26.1766349

- temperature:       220.0000000
  free_energy:         8.0815202
  entropy:            85.8467629
  heat_capacity:      79.8750011
  energy:             26.9678080

- temperature:       230.0000000
  free_energy:         7.2050623
  entropy:            89.4286071
  heat_capacity:      81.2685478
  energy:             27.7736419

- temperature:       240.0000000
  free_energy:         6.2932680
  entropy:            92.9144707
  heat_capacity:      82.5306355
  energy:             28.5927410

- temperature:       250.0000000
  free_energy:         5.3470836
  entropy:            96.3071270
  heat_capacity:      83.6758836
  energy:             29.4238653

- temperature:       260.0000000
  free_energy:         4.3674262
  entropy:            99.6095620
  heat_capacity:      84.7171861
  energy:             30.2659124

- temperature:       270.0000000
  free_energy:         3.3551827
  entropy:           102.8248809
  heat_capacity:      85.6658942
  energy:             31.1179006

- temperature:       280.0000000
  free_energy:         2.3112085
  entropy:           105.9562376
  heat_capacity:      86.5319930
  energy:             31.9789550

- temperature:       290.0000000
  free_energy:         1.2363273
  entropy:           109.0067831
  heat_capacity:      87.3242653
  energy:             32.8482944

- temperature:       300.0000000
  free_energy:         0.1313318
  entropy:           111.9796276
  heat_capacity:      88.0504399
  energy:             33.7252201

- temperature:       310.0000000
  free_energy:        -1.0030164
  entropy:           114.8778131
  heat_capacity:      88.7173246
  energy:             34.6091057

- temperature:       320.0000000
  free_energy:        -2.1659854
  entropy:           117.7042953
  heat_capacity:      89.3309230
  energy:             35.4993890

- temperature:       330.0000000
  free_energy:        -3.3568728
  entropy:           120.4619305
  heat_capacity:      89.8965370
  energy:             36.3955643

- temperature:       340.0000000
  free_energy:        -4.5750037
  entropy:           123.1534684
  heat_capacity:      90.4188562
  energy:             37.2971755

- temperature:       350.0000000
  free_energy:        -5.8197306
  entropy:           125.7815475
  heat_capacity:      90.9020361
  energy:             38.2038110

- temperature:       360.0000000
  free_energy:        -7.0904316
  entropy:           128.3486937
  heat_capacity:      91.3497649
  energy:             39.1150981

- temperature:       370.0000000
  free_energy:        -8.3865095
  entropy:           130.8573204
  heat_capacity:      91.7653227
  energy:             40.0306991

- temperature:       380.0000000
  free_energy:        -9.7073906
  entropy:           133.3097309
  heat_capacity:      92.1516315
  energy:             40.9503071

- temperature:       390.0000000
  free_energy:       -11.0525240
  entropy:           135.7081204
  heat_capacity:      92.5112998
  energy:             41.8736430

- temperature:       400.0000000
  free_energy:       -12.4213800
  entropy:           138.0545801
  heat_capacity:      92.8466600
  energy:             42.8004521

- temperature:       410.0000000
  free_energy:       -13.8134492
  entropy:           140.3511007
  heat_capacity:      93.1598021
  energy:             43.7305021

- temperature:       420.0000000
  free_energy:       -15.2282418
  entropy:           142.5995766
  heat_capacity:      93.4526019
  energy:             44.6635804

- temperature:       430.0000000
  free_energy:       -16.6652866
  entropy:           144.8018106
  heat_capacity:      93.7267461
  energy:             45.5994920

- temperature:       440.0000000
  free_energy:       -18.1241296
  entropy:           146.9595177
  heat_capacity:      93.9837544
  energy:             46.5380582

- temperature:       450.0000000
  free_energy:       -19.6043340
  entropy:           149.0743300
  heat_capacity:      94.2249982
  energy:             47.4791145

- temperature:       460.0000000
  free_energy:       -21.1054784
  entropy:           151.1478004
  heat_capacity:      94.4517172
  energy:             48.4225097

- temperature:       470.0000000
  free_energy:       -22.6271571
  entropy:           153.1814071
  heat_capacity:      94.6650338
  energy:             49.3681042

- temperature:       480.0000000
  free_energy:       -24.1689784
  entropy:           155.1765574
  heat_capacity:      94.8659664
  energy:             50.3157691

- temperature:       490.0000000
  free_energy:       -25.7305645
  entropy:           157.1345916
  heat_capacity:      95.0554400
  energy:             51.2653854

- temperature:       500.0000000
  free_energy:       -27.3115508
  entropy:           159.0567867
  heat_capacity:      95.2342962
  energy:             52.2168426

- temperature:       510.0000000
  free_energy:       -28.9115849
  entropy:           160.9443594
  heat_capacity:      95.4033021
  energy:             53.1700385

- temperature:       520.0000000
  free_energy:       -30.5303264
  entropy:           162.7984703
  heat_capacity:      95.5631579
  energy:             54.1248781

- temperature:       530.0000000
  free_energy:       -32.1674464
  entropy:           164.6202258
  heat_capacity:      95.7145034
  energy:             55.0812733

- temperature:       540.0000000
  free_energy:       -33.8226266
  entropy:           166.4106822
  heat_capacity:      95.8579243
  energy:             56.0391418

- temperature:       550.0000000
  free_energy:       -35.4955591
  entropy:           168.1708477
  heat_capacity:      95.9939574
  energy:             56.9984071

- temperature:       560.0000000
  free_energy:       -37.1859458
  entropy:           169.9016853
  heat_capacity:      96.1230955
  energy:             57.9589979

- temperature:       570.0000000
  free_energy:       -38.8934981
  entropy:           171.6041152
  heat_capacity:      96.2457915
  energy:             58.9208476

- temperature:       580.0000000
  free_energy:       -40.6179364
  entropy:           173.2790173
  heat_capacity:      96.3624620
  energy:             59.8838937

- temperature:       590.0000000
  free_energy:       -42.3589895
  entropy:           174.9272331
  heat_capacity:      96.4734911
  energy:             60.8480780

- temperature:       600.0000000
  free_energy:       -44.1163948
  entropy:           176.5495677
  heat_capacity:      96.5792327
  energy:             61.8133459

- temperature:       610.0000000
  free_energy:       -45.8898972
  entropy:           178.1467923
  heat_capacity:      96.6800142
  energy:             62.7796461

- temperature:       620.0000000
  free_energy:       -47.6792494
  entropy:           179.7196452
  heat_capacity:      96.7761378
  energy:             63.7469306

- temperature:       630.0000000
  free_energy:       -49.4842112
  entropy:           181.2688341
  heat_capacity:      96.8678837
  energy:             64.7151543

- temperature:       640.0000000
  free_energy:       -51.3045494
  entropy:           182.7950375
  heat_capacity:      96.9555112
  energy:             65.6842746

- temperature:       650.0000000
  free_energy:       -53.1400375
  entropy:           184.2989063
  heat_capacity:      97.0392611
  energy:             66.6542516

- temperature:       660.0000000
  free_energy:       -54.9904552
  entropy:           185.7810649
  heat_capacity:      97.1193568
  energy:             67.6250476

- temperature:       670.0000000
  free_energy:       -56.8555884
  entropy:           187.2421129
  heat_capacity:      97.1960062
  energy:             68.5966272

- temperature:       680.0000000
  free_energy:       -58.7352290
  entropy:           188.6826264
  heat_capacity:      97.2694026
  energy:             69.5689569

- temperature:       690.0000000
  free_energy:       -60.6291744
  entropy:           190.1031586
  heat_capacity:      97.3397261
  energy:             70.5420051

- temperature:       700.0000000
  free_energy:       -62.5372273
  entropy:           191.5042416
  heat_capacity:      97.4071446
  energy:             71.5157418

- temperature:       710.0000000
  free_energy:       -64.4591961
  entropy:           192.8863871
  heat_capacity:      97.4718147
  energy:             72.4901388

- temperature:       720.0000000
  free_energy:       -66.3948936
  entropy:           194.2500875
  heat_capacity:      97.5338827
  energy:             73.4651694

- temperature:       730.0000000
  free_energy:       -68.3441379
  entropy:           195.5958166
  heat_capacity:      97.5934855
  energy:             74.4408082

- temperature:       740.0000000
  free_energy:       -70.3067516
  entropy:           196.9240309
  heat_capacity:      97.6507510
  energy:             75.4170313

- temperature:       750.0000000
  free_energy:       -72.2825616
  entropy:           198.2351700
  heat_capacity:      97.7057991
  energy:             76.3938159

- temperature:       760.0000000
  free_energy:       -74.2713995
  entropy:           199.5296575
  heat_capacity:      97.7587420
  energy:             77.3711403

- temperature:       770.0000000
  free_energy:       -76.2731006
  entropy:           200.8079021
  heat_capacity:      97.8096851
  energy:             78.3489840

- temperature:       780.0000000
  free_energy:       -78.2875047
  entropy:           202.0702978
  heat_capacity:      97.8587272
  energy:             79.3273276

- temperature:       790.0000000
  free_energy:       -80.3144550
  entropy:           203.3172248
  heat_capacity:      97.9059613
  energy:             80.3061525

- temperature:       800.0000000
  free_energy:       -82.3537988
  entropy:           204.5490499
  heat_capacity:      97.9514745
  energy:             81.2854411

- temperature:       810.0000000
  free_energy:       -84.4053869
  entropy:           205.7661277
  heat_capacity:      97.9953491
  energy:             82.2651766

- temperature:       820.0000000
  free_energy:       -86.4690734
  entropy:           206.9688003
  heat_capacity:      98.0376623
  energy:             83.2453429

- temperature:       830.0000000
  free_energy:       -88.5447160
  entropy:           208.1573986
  heat_capacity:      98.0784870
  energy:             84.2259249

- temperature:       840.0000000
  free_energy:       -90.6321755
  entropy:           209.3322421
  heat_capacity:      98.1178917
  energy:             85.2069079

- temperature:       850.0000000
  free_energy:       -92.7313160
  entropy:           210.4936402
  heat_capacity:      98.1559414
  energy:             86.1882782

- temperature:       860.0000000
  free_energy:       -94.8420045
  entropy:           211.6418917
  heat_capacity:      98.1926970
  energy:             87.1700224

- temperature:       870.0000000
  free_energy:       -96.9641110
  entropy:           212.7772862
  heat_capacity:      98.2282163
  energy:             88.1521280

- temperature:       880.0000000
  free_energy:       -99.0975083
  entropy:           213.9001035
  heat_capacity:      98.2625540
  energy:             89.1345828

- temperature:       890.0000000
  free_energy:      -101.2420720
  entropy:           215.0106150
  heat_capacity:      98.2957615
  energy:             90.1173753

- temperature:       900.0000000
  free_energy:      -103.3976804
  entropy:           216.1090832
  heat_capacity:      98.3278878
  energy:             91.1004944

- temperature:       910.0000000
  free_energy:      -105.5642144
  entropy:           217.1957626
  heat_capacity:      98.3589790
  energy:             92.0839296

- temperature:       920.0000000
  free_energy:      -107.7415572
  entropy:           218.2708999
  heat_capacity:      98.3890790
  energy:             93.0676707

- temperature:       930.0000000
  free_energy:      -109.9295947
  entropy:           219.3347341
  heat_capacity:      98.4182293
  energy:             94.0517080

- temperature:       940.0000000
  free_energy:      -112.1282150
  entropy:           220.3874971
  heat_capacity:      98.4464693
  energy:             95.0360323

- temperature:       950.0000000
  free_energy:      -114.3373085
  entropy:           221.4294137
  heat_capacity:      98.4738362
  energy:             96.0206345

- temperature:       960.0000000
  free_energy:      -116.5567678
  entropy:           222.4607021
  heat_capacity:      98.5003657
  energy:             97.0055062

- temperature:       970.0000000
  free_energy:      -118.7864878
  entropy:           223.4815742
  heat_capacity:      98.5260913
  energy:             97.9906391

- temperature:       980.0000000
  free_energy:      -121.0263653
  entropy:           224.4922354
  heat_capacity:      98.5510452
  energy:             98.9760255

- temperature:       990.0000000
  free_energy:      -123.2762991
  entropy:           225.4928856
  heat_capacity:      98.5752577
  energy:             99.9616576

- temperature:      1000.0000000
  free_energy:      -125.5361903
  entropy:           226.4837185
  heat_capacity:      98.5987579
  energy:            100.9475282
