phonopy:
  version: "2.37.1"
  frequency_unit_conversion_factor: 15.633302
  symmetry_tolerance: 1.00000e-05

space_group:
  type: "Amm2"
  number: 38
  Hall_symbol: "A 2 -2"

primitive_matrix:
- [ -0.000000000000000, -1.000000000000000, -0.000000000000000 ]
- [ -0.000000000000000,  0.000000000000000,  1.000000000000000 ]
- [ -1.000000000000000,  0.000000000000000,  0.000000000000000 ]

supercell_matrix:
- [   2,   0,   0 ]
- [   0,   2,   0 ]
- [   0,   0,   2 ]

primitive_cell:
  lattice:
  - [    -0.000000206955970,    -0.000000275199308,    -5.322369024792346 ] # a
  - [    -8.917579973524118,     0.000000000000000,     0.000000000000000 ] # b
  - [    -8.278107036424997,     3.316047939439108,     0.000000000000000 ] # c
  points:
  - symbol: Li # 1
    coordinates: [  0.000000001572523,  0.999247587050978,  0.999247541589300 ]
    mass: 6.940000
  - symbol: Sn # 2
    coordinates: [  0.000000011193753,  0.342067230629846,  0.342067240488083 ]
    mass: 118.710000
  - symbol: Sn # 3
    coordinates: [  0.999999997196869,  0.660865735813277,  0.660865743029137 ]
    mass: 118.710000
  - symbol: Sn # 4
    coordinates: [  0.499999983817641,  0.448583166166518,  0.448583231592811 ]
    mass: 118.710000
  - symbol: Sn # 5
    coordinates: [  0.500000000283483,  0.776411595545474,  0.776411574940977 ]
    mass: 118.710000
  - symbol: Sn # 6
    coordinates: [  0.500000006108471,  0.106158017577573,  0.106158001641934 ]
    mass: 118.710000
  reciprocal_lattice: # without 2pi
  - [    -0.000000000000000,     0.000000000000000,    -0.187886258044465 ] # a*
  - [    -0.112138046753598,    -0.279938882318732,     0.000000018834963 ] # b*
  - [    -0.000000000000000,     0.301563794692650,    -0.000000015592708 ] # c*

unit_cell:
  lattice:
  - [     8.917579973524116,     0.000000000000000,     0.000000000000000 ] # a
  - [    -8.278107036424993,     3.316047939439107,     0.000000000000000 ] # b
  - [     0.000000206955970,     0.000000275199308,     5.322369024792345 ] # c
  points:
  - symbol: Li # 1
    coordinates: [  0.000752412949022,  0.999247541589300,  0.999999998427477 ]
    mass: 6.940000
    reduced_to: 1
  - symbol: Sn # 2
    coordinates: [  0.657932769370154,  0.342067240488083,  0.999999988806247 ]
    mass: 118.710000
    reduced_to: 2
  - symbol: Sn # 3
    coordinates: [  0.339134264186723,  0.660865743029137,  0.000000002803131 ]
    mass: 118.710000
    reduced_to: 3
  - symbol: Sn # 4
    coordinates: [  0.551416833833482,  0.448583231592811,  0.500000016182359 ]
    mass: 118.710000
    reduced_to: 4
  - symbol: Sn # 5
    coordinates: [  0.223588404454526,  0.776411574940977,  0.499999999716517 ]
    mass: 118.710000
    reduced_to: 5
  - symbol: Sn # 6
    coordinates: [  0.893841982422427,  0.106158001641935,  0.499999993891529 ]
    mass: 118.710000
    reduced_to: 6

supercell:
  lattice:
  - [    17.835159947048233,     0.000000000000000,     0.000000000000000 ] # a
  - [   -16.556214072849986,     6.632095878878214,     0.000000000000000 ] # b
  - [     0.000000413911940,     0.000000550398615,    10.644738049584690 ] # c
  points:
  - symbol: Li # 1
    coordinates: [  0.000376206474511,  0.499623770794650,  0.499999999213739 ]
    mass: 6.940000
    reduced_to: 1
  - symbol: Li # 2
    coordinates: [  0.500376206474511,  0.499623770794650,  0.499999999213739 ]
    mass: 6.940000
    reduced_to: 1
  - symbol: Li # 3
    coordinates: [  0.000376206474511,  0.999623770794650,  0.499999999213739 ]
    mass: 6.940000
    reduced_to: 1
  - symbol: Li # 4
    coordinates: [  0.500376206474511,  0.999623770794650,  0.499999999213739 ]
    mass: 6.940000
    reduced_to: 1
  - symbol: Li # 5
    coordinates: [  0.000376206474511,  0.499623770794650,  0.999999999213739 ]
    mass: 6.940000
    reduced_to: 1
  - symbol: Li # 6
    coordinates: [  0.500376206474511,  0.499623770794650,  0.999999999213739 ]
    mass: 6.940000
    reduced_to: 1
  - symbol: Li # 7
    coordinates: [  0.000376206474511,  0.999623770794650,  0.999999999213739 ]
    mass: 6.940000
    reduced_to: 1
  - symbol: Li # 8
    coordinates: [  0.500376206474511,  0.999623770794650,  0.999999999213739 ]
    mass: 6.940000
    reduced_to: 1
  - symbol: Sn # 9
    coordinates: [  0.328966384685077,  0.171033620244042,  0.499999994403123 ]
    mass: 118.710000
    reduced_to: 9
  - symbol: Sn # 10
    coordinates: [  0.828966384685077,  0.171033620244042,  0.499999994403123 ]
    mass: 118.710000
    reduced_to: 9
  - symbol: Sn # 11
    coordinates: [  0.328966384685077,  0.671033620244042,  0.499999994403123 ]
    mass: 118.710000
    reduced_to: 9
  - symbol: Sn # 12
    coordinates: [  0.828966384685077,  0.671033620244042,  0.499999994403123 ]
    mass: 118.710000
    reduced_to: 9
  - symbol: Sn # 13
    coordinates: [  0.328966384685077,  0.171033620244042,  0.999999994403123 ]
    mass: 118.710000
    reduced_to: 9
  - symbol: Sn # 14
    coordinates: [  0.828966384685077,  0.171033620244042,  0.999999994403123 ]
    mass: 118.710000
    reduced_to: 9
  - symbol: Sn # 15
    coordinates: [  0.328966384685077,  0.671033620244042,  0.999999994403123 ]
    mass: 118.710000
    reduced_to: 9
  - symbol: Sn # 16
    coordinates: [  0.828966384685077,  0.671033620244042,  0.999999994403123 ]
    mass: 118.710000
    reduced_to: 9
  - symbol: Sn # 17
    coordinates: [  0.169567132093361,  0.330432871514568,  0.000000001401566 ]
    mass: 118.710000
    reduced_to: 17
  - symbol: Sn # 18
    coordinates: [  0.669567132093361,  0.330432871514568,  0.000000001401566 ]
    mass: 118.710000
    reduced_to: 17
  - symbol: Sn # 19
    coordinates: [  0.169567132093361,  0.830432871514568,  0.000000001401566 ]
    mass: 118.710000
    reduced_to: 17
  - symbol: Sn # 20
    coordinates: [  0.669567132093361,  0.830432871514568,  0.000000001401566 ]
    mass: 118.710000
    reduced_to: 17
  - symbol: Sn # 21
    coordinates: [  0.169567132093361,  0.330432871514568,  0.500000001401566 ]
    mass: 118.710000
    reduced_to: 17
  - symbol: Sn # 22
    coordinates: [  0.669567132093361,  0.330432871514568,  0.500000001401566 ]
    mass: 118.710000
    reduced_to: 17
  - symbol: Sn # 23
    coordinates: [  0.169567132093361,  0.830432871514568,  0.500000001401566 ]
    mass: 118.710000
    reduced_to: 17
  - symbol: Sn # 24
    coordinates: [  0.669567132093361,  0.830432871514568,  0.500000001401566 ]
    mass: 118.710000
    reduced_to: 17
  - symbol: Sn # 25
    coordinates: [  0.275708416916741,  0.224291615796406,  0.250000008091180 ]
    mass: 118.710000
    reduced_to: 25
  - symbol: Sn # 26
    coordinates: [  0.775708416916741,  0.224291615796406,  0.250000008091180 ]
    mass: 118.710000
    reduced_to: 25
  - symbol: Sn # 27
    coordinates: [  0.275708416916741,  0.724291615796406,  0.250000008091180 ]
    mass: 118.710000
    reduced_to: 25
  - symbol: Sn # 28
    coordinates: [  0.775708416916741,  0.724291615796406,  0.250000008091180 ]
    mass: 118.710000
    reduced_to: 25
  - symbol: Sn # 29
    coordinates: [  0.275708416916741,  0.224291615796406,  0.750000008091180 ]
    mass: 118.710000
    reduced_to: 25
  - symbol: Sn # 30
    coordinates: [  0.775708416916741,  0.224291615796406,  0.750000008091180 ]
    mass: 118.710000
    reduced_to: 25
  - symbol: Sn # 31
    coordinates: [  0.275708416916741,  0.724291615796406,  0.750000008091180 ]
    mass: 118.710000
    reduced_to: 25
  - symbol: Sn # 32
    coordinates: [  0.775708416916741,  0.724291615796406,  0.750000008091180 ]
    mass: 118.710000
    reduced_to: 25
  - symbol: Sn # 33
    coordinates: [  0.111794202227263,  0.388205787470488,  0.249999999858258 ]
    mass: 118.710000
    reduced_to: 33
  - symbol: Sn # 34
    coordinates: [  0.611794202227263,  0.388205787470488,  0.249999999858258 ]
    mass: 118.710000
    reduced_to: 33
  - symbol: Sn # 35
    coordinates: [  0.111794202227263,  0.888205787470489,  0.249999999858258 ]
    mass: 118.710000
    reduced_to: 33
  - symbol: Sn # 36
    coordinates: [  0.611794202227263,  0.888205787470489,  0.249999999858258 ]
    mass: 118.710000
    reduced_to: 33
  - symbol: Sn # 37
    coordinates: [  0.111794202227263,  0.388205787470488,  0.749999999858258 ]
    mass: 118.710000
    reduced_to: 33
  - symbol: Sn # 38
    coordinates: [  0.611794202227263,  0.388205787470488,  0.749999999858258 ]
    mass: 118.710000
    reduced_to: 33
  - symbol: Sn # 39
    coordinates: [  0.111794202227263,  0.888205787470489,  0.749999999858258 ]
    mass: 118.710000
    reduced_to: 33
  - symbol: Sn # 40
    coordinates: [  0.611794202227263,  0.888205787470489,  0.749999999858258 ]
    mass: 118.710000
    reduced_to: 33
  - symbol: Sn # 41
    coordinates: [  0.446920991211214,  0.053079000820967,  0.249999996945764 ]
    mass: 118.710000
    reduced_to: 41
  - symbol: Sn # 42
    coordinates: [  0.946920991211214,  0.053079000820967,  0.249999996945764 ]
    mass: 118.710000
    reduced_to: 41
  - symbol: Sn # 43
    coordinates: [  0.446920991211214,  0.553079000820967,  0.249999996945764 ]
    mass: 118.710000
    reduced_to: 41
  - symbol: Sn # 44
    coordinates: [  0.946920991211214,  0.553079000820967,  0.249999996945764 ]
    mass: 118.710000
    reduced_to: 41
  - symbol: Sn # 45
    coordinates: [  0.446920991211214,  0.053079000820967,  0.749999996945764 ]
    mass: 118.710000
    reduced_to: 41
  - symbol: Sn # 46
    coordinates: [  0.946920991211214,  0.053079000820967,  0.749999996945764 ]
    mass: 118.710000
    reduced_to: 41
  - symbol: Sn # 47
    coordinates: [  0.446920991211214,  0.553079000820967,  0.749999996945764 ]
    mass: 118.710000
    reduced_to: 41
  - symbol: Sn # 48
    coordinates: [  0.946920991211214,  0.553079000820967,  0.749999996945764 ]
    mass: 118.710000
    reduced_to: 41

displacements:
- atom:    1
  displacement:
    [   0.0085868769633010,  0.0000000002649937,  0.0051249920992262 ]
  forces:
  - [  -0.0286242756992579,  0.0037725209258497, -0.0062818229198456 ]
  - [  -0.0174883976578712,  0.0033736587502062, -0.0000013452954590 ]
  - [  -0.0174875687807798,  0.0033711898140609,  0.0000001899315976 ]
  - [  -0.0181089248508215,  0.0040183989331126, -0.0000932330149226 ]
  - [  -0.0175949186086655,  0.0033831913024187,  0.0007131488528103 ]
  - [  -0.0174885038286448,  0.0033727290574461,  0.0000009756040527 ]
  - [  -0.0174868199974298,  0.0033720873761922, -0.0000005763722584 ]
  - [  -0.0174020249396563,  0.0033141188323498, -0.0005039416719228 ]
  - [  -0.0364456959068775,  0.0070509063079953,  0.0000133064968395 ]
  - [  -0.0345590077340603,  0.0053881467320025, -0.0000264246482402 ]
  - [  -0.0334701798856258,  0.0081025045365095, -0.0000280288513750 ]
  - [  -0.0366558879613876,  0.0070586851797998,  0.0000209433892451 ]
  - [  -0.0366749837994576,  0.0070729693397880, -0.0000130929802253 ]
  - [  -0.0367176979780197,  0.0070894290693104, -0.0002646043431014 ]
  - [  -0.0367290787398815,  0.0070657255128026, -0.0002659230958670 ]
  - [  -0.0366860516369343,  0.0070736901834607, -0.0000218250133912 ]
  - [   0.0383844338357449, -0.0074032340198755, -0.0000129016116261 ]
  - [   0.0384191125631332, -0.0073697036132216, -0.0000898777507246 ]
  - [   0.0384085625410080, -0.0074628796428442, -0.0000900256563909 ]
  - [   0.0384047180414200, -0.0074051562696695, -0.0000159218907356 ]
  - [   0.0383918881416321, -0.0074051050469279,  0.0000126690138131 ]
  - [   0.0403196997940540, -0.0063620796427131, -0.0000955336727202 ]
  - [   0.0396453738212585, -0.0087804421782494, -0.0000956750009209 ]
  - [   0.0385231822729111, -0.0074141025543213,  0.0000174771994352 ]
  - [   0.0046519227325916, -0.0008960682898760, -0.0000158811581059 ]
  - [   0.0046660024672747, -0.0002854582853615,  0.0006401503924280 ]
  - [   0.0044564381241798, -0.0012121647596359,  0.0003006554325111 ]
  - [   0.0046338140964508, -0.0008948035538197, -0.0000046800414566 ]
  - [   0.0046541895717382, -0.0008991290815175,  0.0000165015808307 ]
  - [   0.0050628855824471, -0.0019888402894139,  0.0016155643388629 ]
  - [   0.0054657123982906,  0.0002303803339601,  0.0019739386625588 ]
  - [   0.0046470947563648, -0.0008941157720983,  0.0000053523563111 ]
  - [  -0.0119865396991372,  0.0022546434774995, -0.0003651930019259 ]
  - [  -0.0120224673300982,  0.0023965495638549,  0.0000315253928420 ]
  - [  -0.0120621547102928,  0.0022499905899167,  0.0000032909811125 ]
  - [  -0.0121387317776680,  0.0023751300759614, -0.0000091940019047 ]
  - [  -0.0118015240877867,  0.0022192588075995,  0.0003884347097483 ]
  - [  -0.0121372472494841,  0.0023547019809484, -0.0000053555668273 ]
  - [  -0.0121545772999525,  0.0023317595478147,  0.0000218248896999 ]
  - [  -0.0120056737214327,  0.0023496141657233,  0.0000340996994055 ]
  - [   0.0233630798757076, -0.0044320672750473,  0.0002490477636456 ]
  - [   0.0231980253010988, -0.0044716154225171,  0.0000208351193578 ]
  - [   0.0231980308890343, -0.0044749658554792,  0.0000184667351277 ]
  - [   0.0248075146228075, -0.0047891270369291,  0.0024485732428730 ]
  - [   0.0230866856873035, -0.0043852338567376, -0.0000899704609765 ]
  - [   0.0231841988861561, -0.0044718491844833, -0.0000201987604669 ]
  - [   0.0231827441602945, -0.0044700615108013, -0.0000178787613550 ]
  - [   0.0231736730784178, -0.0044737649150193, -0.0001178611128125 ]
- atom:    1
  displacement:
    [  -0.0085868769633010, -0.0000000002649937, -0.0051249920992262 ]
  forces:
  - [  -0.0063036037608981,  0.0029290979728103,  0.0062930742278695 ]
  - [  -0.0174597743898630,  0.0033661960624158,  0.0000002507003956 ]
  - [  -0.0174576416611671,  0.0033672654535621,  0.0000016780104488 ]
  - [  -0.0168467685580254,  0.0027246037498116,  0.0000843742745928 ]
  - [  -0.0173477567732334,  0.0033550406806171, -0.0007187611190602 ]
  - [  -0.0174592435359955,  0.0033668186515570, -0.0000006263144314 ]
  - [  -0.0174575112760067,  0.0033667706884444, -0.0000021014129743 ]
  - [  -0.0175412744283676,  0.0034233317710459,  0.0004993521142751 ]
  - [  -0.0368795990943909,  0.0070872101932764, -0.0000149375664478 ]
  - [  -0.0387287475168705,  0.0087046939879656,  0.0000193270388991 ]
  - [  -0.0397510863840580,  0.0060818111523986,  0.0000180888455361 ]
  - [  -0.0366698130965233,  0.0070835025981069, -0.0000233821774600 ]
  - [  -0.0366514027118683,  0.0070663020014763,  0.0000121443808894 ]
  - [  -0.0366159602999687,  0.0070529421791434,  0.0002588438801467 ]
  - [  -0.0366027764976025,  0.0070752231404185,  0.0002575622638687 ]
  - [  -0.0366423763334751,  0.0070672873407602,  0.0000226859556278 ]
  - [   0.0384156852960587, -0.0074065821245313,  0.0000115875154734 ]
  - [   0.0383847504854202, -0.0074379136785865,  0.0000924868509173 ]
  - [   0.0383933931589127, -0.0073498683050275,  0.0000925303320400 ]
  - [   0.0383962988853455, -0.0074064228683710,  0.0000144876539707 ]
  - [   0.0384068414568901, -0.0074044005014002, -0.0000127517851070 ]
  - [   0.0363954082131386, -0.0084916818886995,  0.0001048688864103 ]
  - [   0.0371198505163193, -0.0059815351851285,  0.0001047690748237 ]
  - [   0.0382725521922112, -0.0073955338448286, -0.0000173319131136 ]
  - [   0.0047231242060661, -0.0009091412648559,  0.0000167799153132 ]
  - [   0.0047096312046051, -0.0015185438096523, -0.0006314312340692 ]
  - [   0.0049125533550978, -0.0006017992272973, -0.0002847078139894 ]
  - [   0.0047404840588570, -0.0009159846231341,  0.0000056282478909 ]
  - [   0.0047178231179714, -0.0009107207879424, -0.0000163685890584 ]
  - [   0.0043124035000801,  0.0001572351902723, -0.0015859678387642 ]
  - [   0.0039275959134102, -0.0020011616870761, -0.0019150233129039 ]
  - [   0.0047257337719202, -0.0009099715389311, -0.0000051217684813 ]
  - [  -0.0123595837503672,  0.0024387910962105,  0.0003623927768786 ]
  - [  -0.0123249851167202,  0.0022966172546148, -0.0000318332095048 ]
  - [  -0.0122820083051920,  0.0024469993077219, -0.0000037367117329 ]
  - [  -0.0122041963040829,  0.0023186719045043,  0.0000118821699289 ]
  - [  -0.0125617664307356,  0.0024783238768578, -0.0003980221808888 ]
  - [  -0.0122039383277297,  0.0023392271250486,  0.0000068249901233 ]
  - [  -0.0121864965185523,  0.0023626603651792, -0.0000226213123824 ]
  - [  -0.0123356226831675,  0.0023438720963895, -0.0000327233174175 ]
  - [   0.0231064334511757, -0.0045154020190239, -0.0002172689419240 ]
  - [   0.0232399627566338, -0.0044831242412329, -0.0000210951620829 ]
  - [   0.0232444778084755, -0.0044806124642491, -0.0000194518743228 ]
  - [   0.0215764306485653, -0.0041552772745490, -0.0025484785437584 ]
  - [   0.0233580041676760, -0.0045707826502621,  0.0000859255742398 ]
  - [   0.0232571177184582, -0.0044844173826277,  0.0000215156214836 ]
  - [   0.0232581384480000, -0.0044860085472465,  0.0000200427039090 ]
  - [   0.0232793055474758, -0.0044835796579719,  0.0001046443212545 ]
- atom:    9
  displacement:
    [   0.0085868769633010,  0.0000000002649937,  0.0051249920992262 ]
  forces:
  - [  -0.0172534175217152,  0.0033509540371597,  0.0000140315387398 ]
  - [  -0.0154195511713624,  0.0017809357959777, -0.0000165322981047 ]
  - [  -0.0143935298547149,  0.0043175271712244, -0.0000139090116136 ]
  - [  -0.0174674093723297,  0.0033573885448277,  0.0000215740874410 ]
  - [  -0.0174837280064821,  0.0033721586223692, -0.0000123698118841 ]
  - [  -0.0175237711519003,  0.0033945767208934, -0.0002578077837825 ]
  - [  -0.0175340175628662,  0.0033578462898731, -0.0002588303759694 ]
  - [  -0.0174940172582865,  0.0033723707310855, -0.0000215298496187 ]
  - [  -0.0459990054368973,  0.0068774926476181, -0.0083493180572987 ]
  - [  -0.0366900116205215,  0.0070715546607971,  0.0000039339065552 ]
  - [  -0.0366848446428776,  0.0070781041868031,  0.0000042779138312 ]
  - [  -0.0365881323814392,  0.0080378334969282, -0.0005708902026527 ]
  - [  -0.0369196087121964,  0.0070610018447042,  0.0002253511920571 ]
  - [  -0.0366531983017921,  0.0070667420513928, -0.0000046733766794 ]
  - [  -0.0366503819823265,  0.0070693148300052, -0.0000051761744544 ]
  - [  -0.0365968495607376,  0.0071328422054648,  0.0003863286110573 ]
  - [   0.0383685380220413, -0.0073979776352644, -0.0000064577907324 ]
  - [   0.0386114045977592, -0.0074265915900469,  0.0002239095047116 ]
  - [   0.0385124236345291, -0.0074450676329434,  0.0002236853470095 ]
  - [   0.0383425615727901, -0.0073956279084086,  0.0000505708158016 ]
  - [   0.0384965091943741, -0.0074290675111115,  0.0000041971215978 ]
  - [   0.0396090596914291, -0.0072701005265117, -0.0001630792394280 ]
  - [   0.0392373874783516, -0.0079576196148992, -0.0001622028066777 ]
  - [   0.0378914773464203, -0.0073382910341024, -0.0000574812293053 ]
  - [   0.0082169212400913, -0.0016463845968246,  0.0042282496578991 ]
  - [   0.0046445485204458, -0.0008923532441258,  0.0000315377255902 ]
  - [   0.0046533271670341, -0.0008999835699797,  0.0000303268752759 ]
  - [   0.0049697309732437, -0.0008523222059011,  0.0004841885820497 ]
  - [   0.0041629336774349, -0.0008709621615708,  0.0001079409848899 ]
  - [   0.0046168752014637, -0.0008799373172224, -0.0000313047567033 ]
  - [   0.0046241562813520, -0.0009013069793582, -0.0000299631337839 ]
  - [   0.0044690929353237, -0.0007672887295485, -0.0002302837674506 ]
  - [  -0.0121790962293744,  0.0023497040383518, -0.0000149883071572 ]
  - [  -0.0128959100693464,  0.0022467495873570, -0.0003152162535116 ]
  - [  -0.0129946833476424,  0.0030401810072362,  0.0002754508750513 ]
  - [  -0.0121676120907068,  0.0023449584841728, -0.0000104458404167 ]
  - [  -0.0121925696730614,  0.0023528779856861,  0.0000155279230967 ]
  - [  -0.0110301543027163,  0.0037125758826733,  0.0026097700465471 ]
  - [  -0.0118193756788969,  0.0010014944709837,  0.0019922102801502 ]
  - [  -0.0121800340712070,  0.0023471331223845,  0.0000114701715574 ]
  - [   0.0226935781538486, -0.0044295461848378,  0.0000472553365398 ]
  - [   0.0233933106064796, -0.0043476633727551,  0.0001016350724967 ]
  - [   0.0233250036835670, -0.0046567586250603,  0.0000921514729271 ]
  - [   0.0232391934841871, -0.0044198352843523, -0.0003323553828523 ]
  - [   0.0223753117024899, -0.0043683731928468, -0.0005096378736198 ]
  - [   0.0233263093978167, -0.0044450634159148, -0.0000721002434148 ]
  - [   0.0232961587607861, -0.0045415228232741, -0.0000621531216893 ]
  - [   0.0237351432442665, -0.0045146769843996,  0.0003231182345189 ]
- atom:    9
  displacement:
    [  -0.0085868769633010, -0.0000000002649937, -0.0051249920992262 ]
  forces:
  - [  -0.0176877230405807,  0.0033871859777719, -0.0000143533834489 ]
  - [  -0.0195895917713642,  0.0050314930267632,  0.0000292306904157 ]
  - [  -0.0206753872334957,  0.0023628259077668,  0.0000319896498695 ]
  - [  -0.0174815021455288,  0.0033822632394731, -0.0000228067510761 ]
  - [  -0.0174600780010223,  0.0033655988518149,  0.0000126691593323 ]
  - [  -0.0174221843481064,  0.0033427695743740,  0.0002656858996488 ]
  - [  -0.0174076855182648,  0.0033826162107289,  0.0002645292552188 ]
  - [  -0.0174502693116665,  0.0033660330809653,  0.0000228300341405 ]
  - [  -0.0271433982998133,  0.0071714106015861,  0.0083409640938044 ]
  - [  -0.0366390906274319,  0.0070678815245628, -0.0000041762832552 ]
  - [  -0.0366385430097580,  0.0070631080307066, -0.0000039078295231 ]
  - [  -0.0367464497685432,  0.0061115026473999,  0.0005673385458067 ]
  - [  -0.0364129990339279,  0.0070791146717966, -0.0002140553842764 ]
  - [  -0.0366775467991829,  0.0070742727257311,  0.0000034281983972 ]
  - [  -0.0366772711277008,  0.0070717269554734,  0.0000028394861147 ]
  - [  -0.0367320142686367,  0.0070088719949126, -0.0003826681640930 ]
  - [   0.0384328477084637, -0.0074120284989476,  0.0000053839758039 ]
  - [   0.0381902903318405, -0.0073818457312882, -0.0002217218279839 ]
  - [   0.0382870808243752, -0.0073667885735631, -0.0002217572764494 ]
  - [   0.0384578965604305, -0.0074160322546959, -0.0000529866665602 ]
  - [   0.0383085682988167, -0.0073827072046697, -0.0000046100467443 ]
  - [   0.0372621044516563, -0.0075127989985049,  0.0001557585783303 ]
  - [   0.0375970974564552, -0.0068912724964321,  0.0001563492114656 ]
  - [   0.0389205664396286, -0.0074723772704601,  0.0000590756535530 ]
  - [   0.0009941533207893, -0.0001207794994116, -0.0044703762978315 ]
  - [   0.0047300942242146, -0.0009141145274043, -0.0000319260434480 ]
  - [   0.0047201700508595, -0.0009076683782041, -0.0000299184903270 ]
  - [   0.0044577810913324, -0.0009387601166964, -0.0004118204815313 ]
  - [   0.0052065812051296, -0.0009396751411259, -0.0001159515377367 ]
  - [   0.0047625936567783, -0.0009255926124752,  0.0000321808911394 ]
  - [   0.0047556310892105, -0.0009089764207602,  0.0000302982152789 ]
  - [   0.0049110017716885, -0.0010361419990659,  0.0002200017770519 ]
  - [  -0.0121640954166651,  0.0023446474224329,  0.0000149139978021 ]
  - [  -0.0114464201033115,  0.0024491185322404,  0.0003267268184572 ]
  - [  -0.0113375224173069,  0.0016472053248435, -0.0002700591867324 ]
  - [  -0.0121760582551360,  0.0023486069403589,  0.0000107166697489 ]
  - [  -0.0121500790119171,  0.0023425449617207, -0.0000142959106597 ]
  - [  -0.0132689643651247,  0.0010512364096940, -0.0025007384829223 ]
  - [  -0.0125206783413887,  0.0036379897501320, -0.0019298223778605 ]
  - [  -0.0121637545526028,  0.0023460211232305, -0.0000098587588582 ]
  - [   0.0237339939922094, -0.0045228549279273, -0.0000360960693797 ]
  - [   0.0230555441230536, -0.0046030543744564, -0.0000994030706352 ]
  - [   0.0231257118284702, -0.0043069673702121, -0.0000905776687432 ]
  - [   0.0231999699026346, -0.0045363707467914,  0.0003331595216878 ]
  - [   0.0239877272397280, -0.0045717656612396,  0.0004615764482878 ]
  - [   0.0231185257434845, -0.0045121908187866,  0.0000694213958923 ]
  - [   0.0231480076909065, -0.0044149840250611,  0.0000608759364695 ]
  - [   0.0227054301649332, -0.0044402619823813, -0.0003240645746700 ]
- atom:   17
  displacement:
    [   0.0085868769633010,  0.0000000002649937,  0.0051249920992262 ]
  forces:
  - [  -0.0174888279289007,  0.0033711185678840, -0.0000121071498143 ]
  - [  -0.0174581725150347,  0.0033376473002136, -0.0000939414603636 ]
  - [  -0.0174660552293062,  0.0033794650807977, -0.0000921920291148 ]
  - [  -0.0174695961177349,  0.0033700878266245, -0.0000148777035065 ]
  - [  -0.0174789875745773,  0.0033682854846120,  0.0000124437065097 ]
  - [  -0.0154627561569214,  0.0037332249339670, -0.0001054803287843 ]
  - [  -0.0161884780973196,  0.0026694429107010, -0.0001050928258337 ]
  - [  -0.0173492357134819,  0.0033602241892368,  0.0000170234707184 ]
  - [  -0.0366944298148155,  0.0070761027745903, -0.0000057604338508 ]
  - [  -0.0364538393914700,  0.0072725517675281,  0.0002215759595856 ]
  - [  -0.0365481078624725,  0.0068062208592892,  0.0002218363806605 ]
  - [  -0.0367226488888264,  0.0070818522945046,  0.0000508976008859 ]
  - [  -0.0365694463253021,  0.0070466278120875,  0.0000032878233469 ]
  - [  -0.0355229154229164,  0.0074061555787921, -0.0001586565049365 ]
  - [  -0.0358583927154541,  0.0063277753069997, -0.0001595035428181 ]
  - [  -0.0371839553117752,  0.0071374541148543, -0.0000584713416174 ]
  - [   0.0294633451849222, -0.0081396792083979, -0.0097508700564504 ]
  - [   0.0383805669844151, -0.0074086664244533,  0.0000077937729657 ]
  - [   0.0383859463036060, -0.0073949955403805,  0.0000079759629443 ]
  - [   0.0381244793534279, -0.0059889825060964, -0.0005046669393778 ]
  - [   0.0381462983787060, -0.0074036233127117,  0.0004399733152241 ]
  - [   0.0384008809924126, -0.0074119819328189, -0.0000085579231381 ]
  - [   0.0384053364396095, -0.0074002412147820, -0.0000083240447566 ]
  - [   0.0382963940501213, -0.0073418850079179,  0.0000567436218262 ]
  - [   0.0052837673574686, -0.0010472005233169,  0.0002416884235572 ]
  - [   0.0048184096813202, -0.0009281756356359, -0.0001612898922758 ]
  - [   0.0047816969454288, -0.0009242892265320, -0.0000928137305891 ]
  - [   0.0049281343817711, -0.0009152432903647,  0.0001697351981420 ]
  - [   0.0048375036567450, -0.0009642792865634, -0.0000572872304474 ]
  - [   0.0050482414662838, -0.0007612011395395,  0.0001483860978624 ]
  - [   0.0049336403608322, -0.0011644857004285,  0.0000803435177659 ]
  - [   0.0046759769320488, -0.0008625555783510, -0.0001565396669321 ]
  - [  -0.0124520380049944,  0.0023034550249577, -0.0011361469514668 ]
  - [  -0.0122184390202165,  0.0023253131657839, -0.0000059789526858 ]
  - [  -0.0122092831879854,  0.0023855376057327, -0.0000099205208244 ]
  - [  -0.0124685671180487,  0.0025736577808857, -0.0002964783343486 ]
  - [  -0.0101547706872225,  0.0018634335137904,  0.0032768370583653 ]
  - [  -0.0122088985517621,  0.0023348741233349,  0.0000074242789196 ]
  - [  -0.0122051537036896,  0.0023734136484563,  0.0000101545119833 ]
  - [  -0.0117494370788336,  0.0024337950162590,  0.0007681606221013 ]
  - [   0.0232174210250378, -0.0044780317693949,  0.0000102675339804 ]
  - [   0.0238144192844629, -0.0064458712004125,  0.0023026685230434 ]
  - [   0.0249541439116001, -0.0025904404465109,  0.0031326063908637 ]
  - [   0.0232006683945656, -0.0044733700342476,  0.0000193836094695 ]
  - [   0.0232129562646151, -0.0044779577292502, -0.0000097803267636 ]
  - [   0.0225244723260403, -0.0032741187606007,  0.0013042443897575 ]
  - [   0.0225546006113291, -0.0050696330145001,  0.0005122892325744 ]
  - [   0.0231930688023567, -0.0044708349741995, -0.0000190029295482 ]
- atom:   17
  displacement:
    [  -0.0085868769633010, -0.0000000002649937, -0.0051249920992262 ]
  forces:
  - [  -0.0174573119729757,  0.0033678230829537,  0.0000122002093121 ]
  - [  -0.0174928177148104,  0.0034033649135381,  0.0000884365144884 ]
  - [  -0.0174817182123661,  0.0033586465287954,  0.0000901163439266 ]
  - [  -0.0174782201647758,  0.0033689278643578,  0.0000153283472173 ]
  - [  -0.0174637995660305,  0.0033689085394144, -0.0000130594125949 ]
  - [  -0.0193873327225447,  0.0030404157005250,  0.0000949556415435 ]
  - [  -0.0187135376036167,  0.0040314467623830,  0.0000951358815655 ]
  - [  -0.0175999179482460,  0.0033787295687944, -0.0000177702750079 ]
  - [  -0.0366302952170372,  0.0070621785707772,  0.0000058941295720 ]
  - [  -0.0368751510977745,  0.0068622319959104, -0.0002240324392915 ]
  - [  -0.0367736220359802,  0.0073394188657403, -0.0002239973982796 ]
  - [  -0.0366068556904793,  0.0070611182600260, -0.0000529622520844 ]
  - [  -0.0367575064301491,  0.0070931036025286, -0.0000057541801652 ]
  - [  -0.0378701351583004,  0.0067090233787894,  0.0001603043638170 ]
  - [  -0.0374988093972206,  0.0078492071479559,  0.0001592191401869 ]
  - [  -0.0361554063856602,  0.0070035569369793,  0.0000580657906539 ]
  - [   0.0472429618239403, -0.0067035802640021,  0.0096988743171096 ]
  - [   0.0384209491312504, -0.0074010370299220, -0.0000087996013463 ]
  - [   0.0384149923920631, -0.0074157300405204, -0.0000083954655565 ]
  - [   0.0386760272085667, -0.0088171930983663,  0.0004985164850950 ]
  - [   0.0386579930782318, -0.0074065504595637, -0.0004473669687286 ]
  - [   0.0384006649255753, -0.0074011334218085,  0.0000079092569649 ]
  - [   0.0383968874812126, -0.0074095819145441,  0.0000083957565948 ]
  - [   0.0385004505515099, -0.0074674496427178, -0.0000558514147997 ]
  - [   0.0041615739464760, -0.0007704035378993, -0.0001924889220390 ]
  - [   0.0045556779950857, -0.0008775605820119,  0.0001595659996383 ]
  - [   0.0045907571911812, -0.0008841147646308,  0.0000923001280171 ]
  - [   0.0044330283999443, -0.0008944505825639, -0.0001704296300886 ]
  - [   0.0045425556600094, -0.0008470090106130,  0.0000552685232833 ]
  - [   0.0043308921158314, -0.0010483288206160, -0.0001451830030419 ]
  - [   0.0044465772807598, -0.0006414693780243, -0.0000778861649451 ]
  - [   0.0046986546367407, -0.0009415913373232,  0.0001615040964680 ]
  - [  -0.0118806194514036,  0.0023888912983239,  0.0011317208409309 ]
  - [  -0.0121249947696924,  0.0023690713569522,  0.0000062991284722 ]
  - [  -0.0121317747980356,  0.0023091342300177,  0.0000098056807474 ]