phonopy:
  version: "2.37.1"
  frequency_unit_conversion_factor: 15.633302
  symmetry_tolerance: 1.00000e-05

space_group:
  type: "P1"
  number: 1
  Hall_symbol: "P 1"

primitive_matrix:
- [ -0.000000000000000, -1.000000000000000, -0.000000000000000 ]
- [  1.000000000000000,  0.000000000000000, -0.000000000000000 ]
- [  0.000000000000000,  0.000000000000000,  1.000000000000000 ]

supercell_matrix:
- [   3,   0,   0 ]
- [   0,   3,   0 ]
- [   0,   0,   1 ]

primitive_cell:
  lattice:
  - [     0.000000854802124,     3.581201669594761,     0.000000000000000 ] # a
  - [    -3.582619411640549,     0.000000000000000,     0.000000000000000 ] # b
  - [     0.002605390416700,    -0.001284597709295,    13.420761770685107 ] # c
  points:
  - symbol: Li # 1
    coordinates: [  0.758315376917958,  0.685910759525120,  0.160944081492940 ]
    mass: 6.940000
  - symbol: Li # 2
    coordinates: [  0.258443415025192,  0.185536995262596,  0.275250066477277 ]
    mass: 6.940000
  - symbol: Li # 3
    coordinates: [  0.258713328141784,  0.186020634081798,  0.498938455416050 ]
    mass: 6.940000
  - symbol: Li # 4
    coordinates: [  0.758313047764178,  0.685881380947344,  0.612815173041496 ]
    mass: 6.940000
  - symbol: Sn # 5
    coordinates: [  0.758613321533058,  0.685832870714524,  0.387164758850817 ]
    mass: 118.710000
  - symbol: Sn # 6
    coordinates: [  0.758328149718237,  0.686117015024773,  0.886358668588549 ]
    mass: 118.710000
  - symbol: Sn # 7
    coordinates: [  0.258178037350036,  0.185589812558196,  0.048092184476173 ]
    mass: 118.710000
  - symbol: Sn # 8
    coordinates: [  0.258441270730424,  0.186132305671423,  0.725102198636587 ]
    mass: 118.710000
  reciprocal_lattice: # without 2pi
  - [    -0.000000000000000,     0.279235880093052,     0.000026727675973 ] # a*
  - [    -0.279125378696612,     0.000000066624834,     0.000054186989139 ] # b*
  - [    -0.000000000000000,     0.000000000000000,     0.074511418732154 ] # c*

unit_cell:
  lattice:
  - [     3.582619411640549,     0.000000000000000,     0.000000000000000 ] # a
  - [     0.000000854802124,     3.581201669594760,     0.000000000000000 ] # b
  - [     0.002605390416700,    -0.001284597709295,    13.420761770685104 ] # c
  points:
  - symbol: Li # 1
    coordinates: [  0.314089240474880,  0.758315376917958,  0.160944081492940 ]
    mass: 6.940000
    reduced_to: 1
  - symbol: Li # 2
    coordinates: [  0.814463004737404,  0.258443415025192,  0.275250066477277 ]
    mass: 6.940000
    reduced_to: 2
  - symbol: Li # 3
    coordinates: [  0.813979365918202,  0.258713328141784,  0.498938455416050 ]
    mass: 6.940000
    reduced_to: 3
  - symbol: Li # 4
    coordinates: [  0.314118619052656,  0.758313047764178,  0.612815173041496 ]
    mass: 6.940000
    reduced_to: 4
  - symbol: Sn # 5
    coordinates: [  0.314167129285476,  0.758613321533058,  0.387164758850817 ]
    mass: 118.710000
    reduced_to: 5
  - symbol: Sn # 6
    coordinates: [  0.313882984975227,  0.758328149718237,  0.886358668588550 ]
    mass: 118.710000
    reduced_to: 6
  - symbol: Sn # 7
    coordinates: [  0.814410187441804,  0.258178037350036,  0.048092184476173 ]
    mass: 118.710000
    reduced_to: 7
  - symbol: Sn # 8
    coordinates: [  0.813867694328577,  0.258441270730424,  0.725102198636587 ]
    mass: 118.710000
    reduced_to: 8

supercell:
  lattice:
  - [    10.747858234921647,     0.000000000000000,     0.000000000000000 ] # a
  - [     0.000002564406372,    10.743605008784280,     0.000000000000000 ] # b
  - [     0.002605390416700,    -0.001284597709295,    13.420761770685104 ] # c
  points:
  - symbol: Li # 1
    coordinates: [  0.104696413491627,  0.252771792305986,  0.160944081492940 ]
    mass: 6.940000
    reduced_to: 1
  - symbol: Li # 2
    coordinates: [  0.438029746824960,  0.252771792305986,  0.160944081492940 ]
    mass: 6.940000
    reduced_to: 1
  - symbol: Li # 3
    coordinates: [  0.771363080158293,  0.252771792305986,  0.160944081492940 ]
    mass: 6.940000
    reduced_to: 1
  - symbol: Li # 4
    coordinates: [  0.104696413491627,  0.586105125639319,  0.160944081492940 ]
    mass: 6.940000
    reduced_to: 1
  - symbol: Li # 5
    coordinates: [  0.438029746824960,  0.586105125639319,  0.160944081492940 ]
    mass: 6.940000
    reduced_to: 1
  - symbol: Li # 6
    coordinates: [  0.771363080158293,  0.586105125639319,  0.160944081492940 ]
    mass: 6.940000
    reduced_to: 1
  - symbol: Li # 7
    coordinates: [  0.104696413491627,  0.919438458972653,  0.160944081492940 ]
    mass: 6.940000
    reduced_to: 1
  - symbol: Li # 8
    coordinates: [  0.438029746824960,  0.919438458972653,  0.160944081492940 ]
    mass: 6.940000
    reduced_to: 1
  - symbol: Li # 9
    coordinates: [  0.771363080158293,  0.919438458972653,  0.160944081492940 ]
    mass: 6.940000
    reduced_to: 1
  - symbol: Li # 10
    coordinates: [  0.271487668245801,  0.086147805008397,  0.275250066477277 ]
    mass: 6.940000
    reduced_to: 10
  - symbol: Li # 11
    coordinates: [  0.604821001579135,  0.086147805008397,  0.275250066477277 ]
    mass: 6.940000
    reduced_to: 10
  - symbol: Li # 12
    coordinates: [  0.938154334912468,  0.086147805008397,  0.275250066477277 ]
    mass: 6.940000
    reduced_to: 10
  - symbol: Li # 13
    coordinates: [  0.271487668245801,  0.419481138341731,  0.275250066477277 ]
    mass: 6.940000
    reduced_to: 10
  - symbol: Li # 14
    coordinates: [  0.604821001579135,  0.419481138341731,  0.275250066477277 ]
    mass: 6.940000
    reduced_to: 10
  - symbol: Li # 15
    coordinates: [  0.938154334912468,  0.419481138341731,  0.275250066477277 ]
    mass: 6.940000
    reduced_to: 10
  - symbol: Li # 16
    coordinates: [  0.271487668245801,  0.752814471675064,  0.275250066477277 ]
    mass: 6.940000
    reduced_to: 10
  - symbol: Li # 17
    coordinates: [  0.604821001579135,  0.752814471675064,  0.275250066477277 ]
    mass: 6.940000
    reduced_to: 10
  - symbol: Li # 18
    coordinates: [  0.938154334912468,  0.752814471675064,  0.275250066477277 ]
    mass: 6.940000
    reduced_to: 10
  - symbol: Li # 19
    coordinates: [  0.271326455306067,  0.086237776047261,  0.498938455416050 ]
    mass: 6.940000
    reduced_to: 19
  - symbol: Li # 20
    coordinates: [  0.604659788639401,  0.086237776047261,  0.498938455416050 ]
    mass: 6.940000
    reduced_to: 19
  - symbol: Li # 21
    coordinates: [  0.937993121972734,  0.086237776047261,  0.498938455416050 ]
    mass: 6.940000
    reduced_to: 19
  - symbol: Li # 22
    coordinates: [  0.271326455306067,  0.419571109380595,  0.498938455416050 ]
    mass: 6.940000
    reduced_to: 19
  - symbol: Li # 23
    coordinates: [  0.604659788639401,  0.419571109380595,  0.498938455416050 ]
    mass: 6.940000
    reduced_to: 19
  - symbol: Li # 24
    coordinates: [  0.937993121972734,  0.419571109380595,  0.498938455416050 ]
    mass: 6.940000
    reduced_to: 19
  - symbol: Li # 25
    coordinates: [  0.271326455306067,  0.752904442713928,  0.498938455416050 ]
    mass: 6.940000
    reduced_to: 19
  - symbol: Li # 26
    coordinates: [  0.604659788639401,  0.752904442713928,  0.498938455416050 ]
    mass: 6.940000
    reduced_to: 19
  - symbol: Li # 27
    coordinates: [  0.937993121972734,  0.752904442713928,  0.498938455416050 ]
    mass: 6.940000
    reduced_to: 19
  - symbol: Li # 28
    coordinates: [  0.104706206350885,  0.252771015921393,  0.612815173041496 ]
    mass: 6.940000
    reduced_to: 28
  - symbol: Li # 29
    coordinates: [  0.438039539684219,  0.252771015921393,  0.612815173041496 ]
    mass: 6.940000
    reduced_to: 28
  - symbol: Li # 30
    coordinates: [  0.771372873017552,  0.252771015921393,  0.612815173041496 ]
    mass: 6.940000
    reduced_to: 28
  - symbol: Li # 31
    coordinates: [  0.104706206350885,  0.586104349254726,  0.612815173041496 ]
    mass: 6.940000
    reduced_to: 28
  - symbol: Li # 32
    coordinates: [  0.438039539684219,  0.586104349254726,  0.612815173041496 ]
    mass: 6.940000
    reduced_to: 28
  - symbol: Li # 33
    coordinates: [  0.771372873017552,  0.586104349254726,  0.612815173041496 ]
    mass: 6.940000
    reduced_to: 28
  - symbol: Li # 34
    coordinates: [  0.104706206350885,  0.919437682588059,  0.612815173041496 ]
    mass: 6.940000
    reduced_to: 28
  - symbol: Li # 35
    coordinates: [  0.438039539684219,  0.919437682588059,  0.612815173041496 ]
    mass: 6.940000
    reduced_to: 28
  - symbol: Li # 36
    coordinates: [  0.771372873017552,  0.919437682588059,  0.612815173041496 ]
    mass: 6.940000
    reduced_to: 28
  - symbol: Sn # 37
    coordinates: [  0.104722376428492,  0.252871107177686,  0.387164758850817 ]
    mass: 118.710000
    reduced_to: 37
  - symbol: Sn # 38
    coordinates: [  0.438055709761825,  0.252871107177686,  0.387164758850817 ]
    mass: 118.710000
    reduced_to: 37
  - symbol: Sn # 39
    coordinates: [  0.771389043095159,  0.252871107177686,  0.387164758850817 ]
    mass: 118.710000
    reduced_to: 37
  - symbol: Sn # 40
    coordinates: [  0.104722376428492,  0.586204440511019,  0.387164758850817 ]
    mass: 118.710000
    reduced_to: 37
  - symbol: Sn # 41
    coordinates: [  0.438055709761825,  0.586204440511019,  0.387164758850817 ]
    mass: 118.710000
    reduced_to: 37
  - symbol: Sn # 42
    coordinates: [  0.771389043095159,  0.586204440511019,  0.387164758850817 ]
    mass: 118.710000
    reduced_to: 37
  - symbol: Sn # 43
    coordinates: [  0.104722376428492,  0.919537773844353,  0.387164758850817 ]
    mass: 118.710000
    reduced_to: 37
  - symbol: Sn # 44
    coordinates: [  0.438055709761825,  0.919537773844353,  0.387164758850817 ]
    mass: 118.710000
    reduced_to: 37
  - symbol: Sn # 45
    coordinates: [  0.771389043095159,  0.919537773844353,  0.387164758850817 ]
    mass: 118.710000
    reduced_to: 37
  - symbol: Sn # 46
    coordinates: [  0.104627661658409,  0.252776049906079,  0.886358668588550 ]
    mass: 118.710000
    reduced_to: 46
  - symbol: Sn # 47
    coordinates: [  0.437960994991742,  0.252776049906079,  0.886358668588550 ]
    mass: 118.710000
    reduced_to: 46
  - symbol: Sn # 48
    coordinates: [  0.771294328325075,  0.252776049906079,  0.886358668588550 ]
    mass: 118.710000
    reduced_to: 46
  - symbol: Sn # 49
    coordinates: [  0.104627661658409,  0.586109383239412,  0.886358668588550 ]
    mass: 118.710000
    reduced_to: 46
  - symbol: Sn # 50
    coordinates: [  0.437960994991742,  0.586109383239412,  0.886358668588550 ]
    mass: 118.710000
    reduced_to: 46
  - symbol: Sn # 51
    coordinates: [  0.771294328325075,  0.586109383239412,  0.886358668588550 ]
    mass: 118.710000
    reduced_to: 46
  - symbol: Sn # 52
    coordinates: [  0.104627661658409,  0.919442716572746,  0.886358668588550 ]
    mass: 118.710000
    reduced_to: 46
  - symbol: Sn # 53
    coordinates: [  0.437960994991742,  0.919442716572746,  0.886358668588550 ]
    mass: 118.710000
    reduced_to: 46
  - symbol: Sn # 54
    coordinates: [  0.771294328325075,  0.919442716572746,  0.886358668588550 ]
    mass: 118.710000
    reduced_to: 46
  - symbol: Sn # 55
    coordinates: [  0.271470062480601,  0.086059345783345,  0.048092184476173 ]
    mass: 118.710000
    reduced_to: 55
  - symbol: Sn # 56
    coordinates: [  0.604803395813935,  0.086059345783345,  0.048092184476173 ]
    mass: 118.710000
    reduced_to: 55
  - symbol: Sn # 57
    coordinates: [  0.938136729147268,  0.086059345783345,  0.048092184476173 ]
    mass: 118.710000
    reduced_to: 55
  - symbol: Sn # 58
    coordinates: [  0.271470062480601,  0.419392679116679,  0.048092184476173 ]
    mass: 118.710000
    reduced_to: 55
  - symbol: Sn # 59
    coordinates: [  0.604803395813935,  0.419392679116679,  0.048092184476173 ]
    mass: 118.710000
    reduced_to: 55
  - symbol: Sn # 60
    coordinates: [  0.938136729147268,  0.419392679116679,  0.048092184476173 ]
    mass: 118.710000
    reduced_to: 55
  - symbol: Sn # 61
    coordinates: [  0.271470062480601,  0.752726012450012,  0.048092184476173 ]
    mass: 118.710000
    reduced_to: 55
  - symbol: Sn # 62
    coordinates: [  0.604803395813935,  0.752726012450012,  0.048092184476173 ]
    mass: 118.710000
    reduced_to: 55
  - symbol: Sn # 63
    coordinates: [  0.938136729147268,  0.752726012450012,  0.048092184476173 ]
    mass: 118.710000
    reduced_to: 55
  - symbol: Sn # 64
    coordinates: [  0.271289231442859,  0.086147090243475,  0.725102198636587 ]
    mass: 118.710000
    reduced_to: 64
  - symbol: Sn # 65
    coordinates: [  0.604622564776192,  0.086147090243475,  0.725102198636587 ]
    mass: 118.710000
    reduced_to: 64
  - symbol: Sn # 66
    coordinates: [  0.937955898109526,  0.086147090243475,  0.725102198636587 ]
    mass: 118.710000
    reduced_to: 64
  - symbol: Sn # 67
    coordinates: [  0.271289231442859,  0.419480423576808,  0.725102198636587 ]
    mass: 118.710000
    reduced_to: 64
  - symbol: Sn # 68
    coordinates: [  0.604622564776192,  0.419480423576808,  0.725102198636587 ]
    mass: 118.710000
    reduced_to: 64
  - symbol: Sn # 69
    coordinates: [  0.937955898109526,  0.419480423576808,  0.725102198636587 ]
    mass: 118.710000
    reduced_to: 64
  - symbol: Sn # 70
    coordinates: [  0.271289231442859,  0.752813756910141,  0.725102198636587 ]
    mass: 118.710000
    reduced_to: 64
  - symbol: Sn # 71
    coordinates: [  0.604622564776192,  0.752813756910141,  0.725102198636587 ]
    mass: 118.710000
    reduced_to: 64
  - symbol: Sn # 72
    coordinates: [  0.937955898109526,  0.752813756910141,  0.725102198636587 ]
    mass: 118.710000
    reduced_to: 64

displacements:
- atom:    1
  displacement:
    [   0.0100000000000000,  0.0000000000000000,  0.0000000000000000 ]
  forces:
  - [  -0.0175036881119013, -0.0002547428011894,  0.0160431116819382 ]
  - [   0.0026253275573254, -0.0002561793953646,  0.0159622281789780 ]
  - [   0.0026321783661842, -0.0002543968439568,  0.0159223750233650 ]
  - [   0.0022374168038368, -0.0002555719402153,  0.0159474611282349 ]
  - [   0.0024091377854347, -0.0000849810967338,  0.0157265141606331 ]
  - [   0.0024064220488071, -0.0004189187311567,  0.0161722153425217 ]
  - [   0.0022366028279066, -0.0002538785338402,  0.0159464627504349 ]
  - [   0.0024093892425299, -0.0004222188144922,  0.0157256200909615 ]
  - [   0.0024062059819698, -0.0000912951218197,  0.0161732882261276 ]
  - [  -0.0004580032546073, -0.0013380680466071,  0.0142776351422071 ]
  - [  -0.0018257085466757,  0.0002567216870375,  0.0126500222831964 ]
  - [  -0.0004622037522495,  0.0018453744705766,  0.0110290264710784 ]
  - [  -0.0004612695774995,  0.0018487084889784,  0.0142730092629790 ]
  - [  -0.0018251859582961,  0.0002570492797531,  0.0126497950404882 ]
  - [  -0.0004646199813578, -0.0013284699525684,  0.0110270828008652 ]
  - [  -0.0018254953902215,  0.0002589597715996,  0.0125990314409137 ]
  - [  -0.0017857914790511,  0.0002563649031799,  0.0126513000577688 ]
  - [  -0.0018283689860255,  0.0002577228588052,  0.0127004366368055 ]
  - [   0.0008571072248742, -0.0013319849967957, -0.0195260941982269 ]
  - [   0.0007547074346803, -0.0011587026529014, -0.0196086224168539 ]
  - [   0.0008539850823581, -0.0009892783127725, -0.0196905173361301 ]
  - [   0.0008568193297833, -0.0009910059161484, -0.0195237156003714 ]
  - [   0.0007548154680990, -0.0011613182723522, -0.0196039378643036 ]
  - [   0.0008560876594856, -0.0013318953569978, -0.0196874458342791 ]
  - [   0.0007681481656618, -0.0011621833546087, -0.0195761173963547 ]
  - [   0.0007239176775329, -0.0011621778830886, -0.0196085758507252 ]
  - [   0.0007666349411011, -0.0011627076892182, -0.0196391753852367 ]
  - [  -0.0013215565122664,  0.0014498122036457, -0.0152059942483902 ]
  - [  -0.0012546647340059,  0.0014494843780994, -0.0151833668351173 ]
  - [  -0.0012542046606541,  0.0014491998590529, -0.0152302309870720 ]
  - [  -0.0012484568869695,  0.0014513279311359, -0.0152073726058006 ]
  - [  -0.0012625530362129,  0.0014586616307497, -0.0152268707752228 ]
  - [  -0.0012633763253689,  0.0014412300661206, -0.0151886343955994 ]
  - [  -0.0012480560690165,  0.0014495309442282, -0.0152054503560066 ]
  - [  -0.0012615453451872,  0.0014428887516260, -0.0152251496911049 ]
  - [  -0.0012612529098988,  0.0014595172833651, -0.0151893272995949 ]
  - [   0.0010988521389663, -0.0004937051562592, -0.0083189550787210 ]
  - [   0.0007514799945056, -0.0004937052726746, -0.0081158466637135 ]
  - [   0.0007723338203505, -0.0004945318796672, -0.0085091758519411 ]
  - [   0.0005302375066094, -0.0004932135343552, -0.0083061456680298 ]
  - [   0.0002866394352168, -0.0006066830828786, -0.0083897607401013 ]
  - [   0.0002908154856414, -0.0003793175856117, -0.0082153268158436 ]
  - [   0.0005337912589312, -0.0004979679360986, -0.0083016585558653 ]
  - [   0.0002836920320988, -0.0003812843642663, -0.0083906427025795 ]
  - [   0.0002897852100432, -0.0006133826682344, -0.0082167405635118 ]
  - [  -0.0001144853886217,  0.0000079078599811,  0.0047267423942685 ]
  - [   0.0007810429669917,  0.0000069062880357,  0.0042641013860703 ]
  - [   0.0007711690850556,  0.0000067867313192,  0.0051629240624607 ]
  - [   0.0004025283269584,  0.0000081245980255,  0.0047199819236994 ]
  - [   0.0001674210652709, -0.0003741795080714,  0.0051211230456829 ]
  - [   0.0001747328788042,  0.0003784415312111,  0.0043301922269166 ]
  - [   0.0004017269820906,  0.0000072745606303,  0.0047190240584314 ]
  - [   0.0001679100096226,  0.0003905054181814,  0.0051212059333920 ]
  - [   0.0001747841015458, -0.0003627810801845,  0.0043287975713611 ]
  - [   0.0015699733048677, -0.0033887596800923, -0.0288216099143028 ]
  - [  -0.0022950274869800,  0.0008249039528891, -0.0265605598688126 ]
  - [   0.0015358978416771,  0.0049836430698633, -0.0243364572525024 ]
  - [   0.0015748869627714,  0.0050454423762858, -0.0288264155387878 ]
  - [  -0.0022938144393265,  0.0008252045954578, -0.0265609547495842 ]
  - [   0.0015428459737450, -0.0033403888810426, -0.0243317708373070 ]
  - [  -0.0020446395501494,  0.0008238350274041, -0.0264962539076805 ]
  - [  -0.0019839843735099,  0.0008249266538769, -0.0265595391392708 ]
  - [  -0.0020443028770387,  0.0008248238591477, -0.0266212597489357 ]
  - [   0.0011086522135884, -0.0005537127144635,  0.0363474413752556 ]
  - [   0.0010940842330456, -0.0006276704370975,  0.0363599658012390 ]
  - [   0.0011073283385485, -0.0007030591368675,  0.0363717898726463 ]
  - [   0.0011079879477620, -0.0007038513431326,  0.0363466441631317 ]
  - [   0.0010945590911433, -0.0006299372762442,  0.0363600179553032 ]
  - [   0.0011061895638704, -0.0005547995679080,  0.0363717004656792 ]
  - [   0.0010384904453531, -0.0006295396015048,  0.0363323986530304 ]
  - [   0.0012360690161586, -0.0006295859930106,  0.0363588035106659 ]
  - [   0.0010415115393698, -0.0006292721373029,  0.0363862887024879 ]
- atom:    1
  displacement:
    [  -0.0100000000000000,  0.0000000000000000,  0.0000000000000000 ]
  forces:
  - [   0.0221050065010786, -0.0002545714378357,  0.0160844624042511 ]
  - [   0.0019687674939632, -0.0002564257301856,  0.0159221813082695 ]
  - [   0.0019758678972721, -0.0002542016445659,  0.0159605070948601 ]
  - [   0.0023666657507420, -0.0002564744499978,  0.0159463584423065 ]
  - [   0.0021933801472187, -0.0004179563256912,  0.0161742195487022 ]
  - [   0.0021906830370426, -0.0000851155418786,  0.0157246142625809 ]
  - [   0.0023660808801651, -0.0002532079815865,  0.0159450992941856 ]
  - [   0.0021935701370239, -0.0000886861234903,  0.0161727294325829 ]
  - [   0.0021902211010456, -0.0004256103420630,  0.0157261416316032 ]
  - [  -0.0031659973319620,  0.0018387397285551,  0.0110321417450905 ]
  - [  -0.0018060453003272,  0.0002564655733295,  0.0126502849161625 ]
  - [  -0.0031692415941507, -0.0013421959010884,  0.0142828868702054 ]
  - [  -0.0031655495986342, -0.0013241474516690,  0.0110312383621931 ]
  - [  -0.0018056915141642,  0.0002573066740297,  0.0126501182094216 ]
  - [  -0.0031680392567068,  0.0018551297252998,  0.0142769142985344 ]
  - [  -0.0018029171042144,  0.0002588026982266,  0.0126995276659727 ]
  - [  -0.0018423649016768,  0.0002563892630860,  0.0126512823626399 ]
  - [  -0.0018059427384287,  0.0002576843253337,  0.0126002598553896 ]
  - [   0.0006526798242703, -0.0009917729767039, -0.0196873601526022 ]
  - [   0.0007479609921575, -0.0011586179025471, -0.0196087956428528 ]
  - [   0.0006487490027212, -0.0013299139682204, -0.0195291768759489 ]
  - [   0.0006522869807668, -0.0013312988448888, -0.0196849741041660 ]
  - [   0.0007482105283998, -0.0011612134985626, -0.0196040235459805 ]
  - [   0.0006504018092528, -0.0009909784421325, -0.0195260308682919 ]
  - [   0.0007413601269946, -0.0011620912700891, -0.0196381136775017 ]
  - [   0.0007776701240800, -0.0011623159516603, -0.0196088738739491 ]
  - [   0.0007396268192679, -0.0011628530919552, -0.0195771101862192 ]
  - [  -0.0011929854517803,  0.0014497078955173, -0.0152059122920036 ]
  - [  -0.0012623332440853,  0.0014494955539703, -0.0152308940887451 ]
  - [  -0.0012618750333786,  0.0014492142945528, -0.0151827186346054 ]
  - [  -0.0012670294381678,  0.0014515663497150, -0.0152073577046394 ]
  - [  -0.0012533273547888,  0.0014415960758924, -0.0151911526918411 ]
  - [  -0.0012539662420750,  0.0014585463795811, -0.0152246952056885 ]
  - [  -0.0012668836861849,  0.0014495644718409, -0.0152054429054260 ]
  - [  -0.0012522265315056,  0.0014597512781620, -0.0151889249682426 ]
  - [  -0.0012519247829914,  0.0014424356631935, -0.0152252838015556 ]
  - [  -0.0001845070219133, -0.0004938647034578, -0.0083296624943614 ]
  - [   0.0001443797373213, -0.0004947679117322, -0.0085118990391493 ]
  - [   0.0001716575061437, -0.0004942405503243, -0.0081186331808567 ]
  - [   0.0003855450195260, -0.0004933131858706, -0.0083064250648022 ]
  - [   0.0006321446271613, -0.0003757299855351, -0.0082200253382325 ]
  - [   0.0006346473819576, -0.0006079126033001, -0.0083832181990147 ]
  - [   0.0003889519721270, -0.0004976792261004, -0.0083018727600574 ]
  - [   0.0006294678896666, -0.0006116316653788, -0.0082207731902599 ]
  - [   0.0006348040769808, -0.0003847324114759, -0.0083850789815187 ]
  - [   0.0010364576010033,  0.0000081099569798,  0.0047181979753077 ]
  - [   0.0001466972753406,  0.0000059599551605,  0.0051659476011992 ]
  - [   0.0001416192390025,  0.0000076387368608,  0.0042689992114902 ]
  - [   0.0005200421437621,  0.0000049170303100,  0.0047233547084033 ]
  - [   0.0007470659911633,  0.0003821532591246,  0.0043261596001685 ]
  - [   0.0007486515678465, -0.0003703241236508,  0.0051175132393837 ]
  - [   0.0005199691513553,  0.0000107092782855,  0.0047226417809725 ]
  - [   0.0007486408576369, -0.0003661392256618,  0.0043247379362583 ]
  - [   0.0007500844076276,  0.0003866028855555,  0.0051175276748836 ]
  - [  -0.0055454326793551,  0.0049681649543345, -0.0243446156382561 ]
  - [  -0.0017185597680509,  0.0008244960336015, -0.0265619233250618 ]
  - [  -0.0055828387849033, -0.0034029355738312, -0.0288288369774818 ]
  - [  -0.0055536604486406, -0.0033248027320951, -0.0243386849761009 ]
  - [  -0.0017146351747215,  0.0008258583839051, -0.0265620425343513 ]
  - [  -0.0055888202041388,  0.0050588198937476, -0.0288344547152519 ]
  - [  -0.0019670485053211,  0.0008243267657235, -0.0266221389174461 ]
  - [  -0.0020254894625396,  0.0008247950463556, -0.0265601426362991 ]
  - [  -0.0019694440998137,  0.0008244315395132, -0.0264977365732193 ]
  - [   0.0011032519396394, -0.0007017244934104,  0.0363727286458015 ]
  - [   0.0011153250234202, -0.0006284923292696,  0.0363601818680763 ]
  - [   0.0011014374904335, -0.0005552014335990,  0.0363471508026123 ]
  - [   0.0011020200327039, -0.0005566283361986,  0.0363723784685135 ]
  - [   0.0011159162968397, -0.0006288969889283,  0.0363600328564644 ]
  - [   0.0011005675187334, -0.0007022880017757,  0.0363466739654541 ]
  - [   0.0011701956391335, -0.0006291721365415,  0.0363869965076447 ]
  - [   0.0009749827440828, -0.0006299146916717,  0.0363602340221405 ]
  - [   0.0011710440739989, -0.0006293499027379,  0.0363325774669647 ]
- atom:    1
  displacement:
    [   0.0000000023869142,  0.0099999999999997,  0.0000000000000000 ]
  forces:
  - [   0.0023011858575046, -0.0200384110212326,  0.0160731002688408 ]
  - [   0.0022996142506599, -0.0003214117605239,  0.0159483850002289 ]
  - [   0.0023015961050987, -0.0003193689626642,  0.0159476101398468 ]
  - [   0.0023016110062599,  0.0000716977665434,  0.0159576237201691 ]
  - [   0.0024691410362720, -0.0001441766216885,  0.0157268866896629 ]
  - [   0.0021311156451702, -0.0001446859387215,  0.0157241001725197 ]
  - [   0.0023017760831863,  0.0000796429812908,  0.0159226059913635 ]
  - [   0.0021350476890802, -0.0001469533890486,  0.0161727443337440 ]
  - [   0.0024639964103699, -0.0001500302023487,  0.0161737203598022 ]
  - [  -0.0033947080373764,  0.0016049238620326,  0.0110340416431427 ]
  - [  -0.0018157211598009,  0.0002465193392709,  0.0126996282488108 ]
  - [  -0.0002285219525220,  0.0016113666351885,  0.0110294343903661 ]
  - [  -0.0002210356178693,  0.0016045114025474,  0.0142715582624078 ]
  - [  -0.0018156412988901,  0.0002447869628668,  0.0125989420339465 ]
  - [  -0.0034132497385144,  0.0016107819974422,  0.0142768239602447 ]
  - [  -0.0018129253294319,  0.0002506617165636,  0.0126501834020019 ]
  - [  -0.0018140648026019,  0.0002845878771041,  0.0126512413844466 ]
  - [  -0.0018184130312875,  0.0002493374049664,  0.0126512181013823 ]
  - [   0.0005849599838257, -0.0010595172643661, -0.0196873340755701 ]
  - [   0.0007514095632359, -0.0011451307218522, -0.0196398310363293 ]
  - [   0.0009213498560712, -0.0010572556639090, -0.0196901708841324 ]
  - [   0.0009247323032469, -0.0010588851291686, -0.0195233970880508 ]
  - [   0.0007513685850427, -0.0011478285305202, -0.0195730365812778 ]
  - [   0.0005831720773131, -0.0010592155158520, -0.0195260588079691 ]
  - [   0.0007547747809440, -0.0011588388588279, -0.0196072142571211 ]
  - [   0.0007507744594477, -0.0011892348993570, -0.0196087472140789 ]
  - [   0.0007530985167250, -0.0011592695955187, -0.0196081232279539 ]
  - [  -0.0012572408886626,  0.0013852789998055, -0.0152069479227066 ]
  - [  -0.0012584216892719,  0.0014589037746191, -0.0152072086930275 ]
  - [  -0.0012580268085003,  0.0014586683828384, -0.0152066349983215 ]
  - [  -0.0012576957233250,  0.0014551575295627, -0.0151837542653084 ]
  - [  -0.0012494269758463,  0.0014451686292887, -0.0152269303798676 ]
  - [  -0.0012672841548920,  0.0014450507005677, -0.0152246356010437 ]
  - [  -0.0012574680149555,  0.0014534574002028, -0.0152291953563690 ]
  - [  -0.0012654606252909,  0.0014466661959887, -0.0151890367269516 ]
  - [  -0.0012480616569519,  0.0014464125270024, -0.0151891708374023 ]
  - [   0.0004573435580824,  0.0001457804464735, -0.0083236964419484 ]
  - [   0.0004585868446156, -0.0004211487248540, -0.0083065032958984 ]
  - [   0.0004610027535819, -0.0004217409878038, -0.0083064706996083 ]
  - [   0.0004576614883263, -0.0002022702246904, -0.0081176459789276 ]
  - [   0.0003454027464613, -0.0006645061075687, -0.0083894636482000 ]
  - [   0.0005768695846200, -0.0006664568209089, -0.0083835385739803 ]
  - [   0.0004617245867848, -0.0001892832806334, -0.0085017587989569 ]
  - [   0.0005724700167775, -0.0006683242972940, -0.0082210255786777 ]
  - [   0.0003461923915893, -0.0006708967848681, -0.0082164807245135 ]
  - [   0.0004611194308382, -0.0005667647346854,  0.0047206627205014 ]
  - [   0.0004586633294821, -0.0000522167028976,  0.0047209472395480 ]
  - [   0.0004613772034645, -0.0000504863892274,  0.0047216904349625 ]
  - [   0.0004596048966050,  0.0003268801374361,  0.0042680939659476 ]
  - [   0.0000803107395768, -0.0002847842406482,  0.0051205921918154 ]
  - [   0.0008369521237910, -0.0002824499097187,  0.0051179900765419 ]
  - [   0.0004624299763236,  0.0003210180439055,  0.0051656784489751 ]
  - [   0.0008351388387382, -0.0002781557850540,  0.0043246932327747 ]
  - [   0.0000868481583893, -0.0002764223027043,  0.0043283477425575 ]
  - [  -0.0061471560038626,  0.0043570999987423, -0.0243482738733292 ]
  - [  -0.0020071421749890,  0.0007872727001086, -0.0266215950250626 ]
  - [   0.0021512368693948,  0.0043730195611715, -0.0243383720517159 ]
  - [   0.0022096722386777,  0.0043941363692284, -0.0288220196962357 ]
  - [  -0.0020030657760799,  0.0007874918519519, -0.0264989957213402 ]
  - [  -0.0062382738105953,  0.0044094962067902, -0.0288316160440445 ]
  - [  -0.0020056716166437,  0.0005341807845980, -0.0265603512525558 ]
  - [  -0.0020043952390552,  0.0008454491035081, -0.0265599116683006 ]
  - [  -0.0020074229687452,  0.0005317303002812, -0.0265608802437782 ]
  - [   0.0011794866295531, -0.0006253758911043,  0.0363725498318672 ]
  - [   0.0011046656873077, -0.0006935913115740,  0.0363870635628700 ]
  - [   0.0010309999343008, -0.0006265155971050,  0.0363720208406448 ]
  - [   0.0010307148331776, -0.0006267079152167,  0.0363471657037735 ]
  - [   0.0011052576592192, -0.0006943540647626,  0.0363324880599976 ]
  - [   0.0011778282932937, -0.0006248075515032,  0.0363465175032616 ]
  - [   0.0011037643998861, -0.0006399520207196,  0.0363600254058838 ]
  - [   0.0011054181959480, -0.0004992384929210,  0.0363599061965942 ]
  - [   0.0011070179753006, -0.0006405248423107,  0.0363598167896271 ]
- atom:    1
  displacement:
    [  -0.0000000023869142, -0.0099999999999997,  0.0000000000000000 ]
  forces:
  - [   0.0023010401055217,  0.0195295233279467,  0.0160541981458664 ]
  - [   0.0022997036576271, -0.0001914560125442,  0.0159484520554543 ]
  - [   0.0023017488420010, -0.0001895343157230,  0.0159477069973946 ]
  - [   0.0023025088012218, -0.0005888653686270,  0.0159239023923874 ]
  - [   0.0021346658468246, -0.0003599805640988,  0.0161737129092216 ]
  - [   0.0024645887315273, -0.0003602719225455,  0.0161723867058754 ]
  - [   0.0023008575662971, -0.0005810558795929,  0.0159564241766930 ]
  - [   0.0024690292775631, -0.0003628171980381,  0.0157255008816719 ]