phonopy:
  version: "2.37.1"
  frequency_unit_conversion_factor: 15.633302
  symmetry_tolerance: 1.00000e-05

space_group:
  type: "P1"
  number: 1
  Hall_symbol: "P 1"

primitive_matrix:
- [ -1.000000000000000, -1.000000000000000,  0.000000000000000 ]
- [ -1.000000000000000,  0.000000000000000,  0.000000000000000 ]
- [  0.000000000000000,  0.000000000000000, -1.000000000000000 ]

supercell_matrix:
- [   3,   0,   0 ]
- [   0,   3,   0 ]
- [   0,   0,   1 ]

primitive_cell:
  lattice:
  - [    -2.105997595141172,    -3.655611991878621,     0.000000000000000 ] # a
  - [    -4.222549979678570,     0.000000000000000,     0.000000000000000 ] # b
  - [    -0.017351206244556,     0.004323065548554,   -22.813213322486735 ] # c
  points:
  - symbol: Sn # 1
    coordinates: [  0.650826723757996,  0.207482119205164,  0.093689336321343 ]
    mass: 118.710000
  - symbol: Sn # 2
    coordinates: [  0.652775523362906,  0.205578606096562,  0.594345013120656 ]
    mass: 118.710000
  - symbol: Sn # 3
    coordinates: [  0.317315623091492,  0.874210236637922,  0.011392536878463 ]
    mass: 118.710000
  - symbol: Sn # 4
    coordinates: [  0.986037110067798,  0.538637145372086,  0.426633912816126 ]
    mass: 118.710000
  - symbol: Sn # 5
    coordinates: [  0.318151416791878,  0.873116973677063,  0.762693601631388 ]
    mass: 118.710000
  - symbol: Sn # 6
    coordinates: [  0.651098151019676,  0.206714495329689,  0.846341589752601 ]
    mass: 118.710000
  - symbol: Sn # 7
    coordinates: [  0.985407190668661,  0.539451519527617,  0.678686960935047 ]
    mass: 118.710000
  - symbol: Sn # 8
    coordinates: [  0.319801612033361,  0.871619224441008,  0.510252985458160 ]
    mass: 118.710000
  - symbol: Sn # 9
    coordinates: [  0.984310751945154,  0.540916147354708,  0.176134299288146 ]
    mass: 118.710000
  - symbol: Sn # 10
    coordinates: [  0.652331958256910,  0.205817620618713,  0.342762111821705 ]
    mass: 118.710000
  - symbol: Sn # 11
    coordinates: [  0.318028032420452,  0.873782965343012,  0.259366261346483 ]
    mass: 118.710000
  - symbol: Sn # 12
    coordinates: [  0.984028237194080,  0.540796985665755,  0.929164009340365 ]
    mass: 118.710000
  reciprocal_lattice: # without 2pi
  - [    -0.000000000000000,    -0.273552007768226,    -0.000051837645307 ] # a*
  - [    -0.236823721403559,     0.136434115233321,     0.000205976720178 ] # b*
  - [    -0.000000000000000,    -0.000000000000000,    -0.043834245788352 ] # c*

unit_cell:
  lattice:
  - [     4.222549979678571,     0.000000000000000,     0.000000000000000 ] # a
  - [    -2.116552384537398,     3.655611991878621,     0.000000000000000 ] # b
  - [     0.017351206244556,    -0.004323065548554,    22.813213322486735 ] # c
  points:
  - symbol: Sn # 1
    coordinates: [  0.141691157036841,  0.349173276242004,  0.906310663678657 ]
    mass: 118.710000
    reduced_to: 1
  - symbol: Sn # 2
    coordinates: [  0.141645870540532,  0.347224476637094,  0.405654986879344 ]
    mass: 118.710000
    reduced_to: 2
  - symbol: Sn # 3
    coordinates: [  0.808474140270586,  0.682684376908508,  0.988607463121537 ]
    mass: 118.710000
    reduced_to: 3
  - symbol: Sn # 4
    coordinates: [  0.475325744560115,  0.013962889932202,  0.573366087183874 ]
    mass: 118.710000
    reduced_to: 4
  - symbol: Sn # 5
    coordinates: [  0.808731609531058,  0.681848583208122,  0.237306398368612 ]
    mass: 118.710000
    reduced_to: 5
  - symbol: Sn # 6
    coordinates: [  0.142187353650634,  0.348901848980324,  0.153658410247399 ]
    mass: 118.710000
    reduced_to: 6
  - symbol: Sn # 7
    coordinates: [  0.475141289803722,  0.014592809331339,  0.321313039064953 ]
    mass: 118.710000
    reduced_to: 7
  - symbol: Sn # 8
    coordinates: [  0.808579163525631,  0.680198387966639,  0.489747014541840 ]
    mass: 118.710000
    reduced_to: 8
  - symbol: Sn # 9
    coordinates: [  0.474773100700137,  0.015689248054846,  0.823865700711854 ]
    mass: 118.710000
    reduced_to: 9
  - symbol: Sn # 10
    coordinates: [  0.141850421124377,  0.347668041743090,  0.657237888178295 ]
    mass: 118.710000
    reduced_to: 10
  - symbol: Sn # 11
    coordinates: [  0.808189002236536,  0.681971967579548,  0.740633738653517 ]
    mass: 118.710000
    reduced_to: 11
  - symbol: Sn # 12
    coordinates: [  0.475174777140166,  0.015971762805920,  0.070835990659635 ]
    mass: 118.710000
    reduced_to: 12

supercell:
  lattice:
  - [    12.667649939035712,     0.000000000000000,     0.000000000000000 ] # a
  - [    -6.349657153612196,    10.966835975635863,     0.000000000000000 ] # b
  - [     0.017351206244556,    -0.004323065548554,    22.813213322486735 ] # c
  points:
  - symbol: Sn # 1
    coordinates: [  0.047230385678947,  0.116391092080668,  0.906310663678657 ]
    mass: 118.710000
    reduced_to: 1
  - symbol: Sn # 2
    coordinates: [  0.380563719012280,  0.116391092080668,  0.906310663678657 ]
    mass: 118.710000
    reduced_to: 1
  - symbol: Sn # 3
    coordinates: [  0.713897052345614,  0.116391092080668,  0.906310663678657 ]
    mass: 118.710000
    reduced_to: 1
  - symbol: Sn # 4
    coordinates: [  0.047230385678947,  0.449724425414001,  0.906310663678657 ]
    mass: 118.710000
    reduced_to: 1
  - symbol: Sn # 5
    coordinates: [  0.380563719012280,  0.449724425414001,  0.906310663678657 ]
    mass: 118.710000
    reduced_to: 1
  - symbol: Sn # 6
    coordinates: [  0.713897052345614,  0.449724425414001,  0.906310663678657 ]
    mass: 118.710000
    reduced_to: 1
  - symbol: Sn # 7
    coordinates: [  0.047230385678947,  0.783057758747335,  0.906310663678657 ]
    mass: 118.710000
    reduced_to: 1
  - symbol: Sn # 8
    coordinates: [  0.380563719012280,  0.783057758747335,  0.906310663678657 ]
    mass: 118.710000
    reduced_to: 1
  - symbol: Sn # 9
    coordinates: [  0.713897052345614,  0.783057758747335,  0.906310663678657 ]
    mass: 118.710000
    reduced_to: 1
  - symbol: Sn # 10
    coordinates: [  0.047215290180177,  0.115741492212365,  0.405654986879344 ]
    mass: 118.710000
    reduced_to: 10
  - symbol: Sn # 11
    coordinates: [  0.380548623513511,  0.115741492212365,  0.405654986879344 ]
    mass: 118.710000
    reduced_to: 10
  - symbol: Sn # 12
    coordinates: [  0.713881956846844,  0.115741492212365,  0.405654986879344 ]
    mass: 118.710000
    reduced_to: 10
  - symbol: Sn # 13
    coordinates: [  0.047215290180177,  0.449074825545698,  0.405654986879344 ]
    mass: 118.710000
    reduced_to: 10
  - symbol: Sn # 14
    coordinates: [  0.380548623513511,  0.449074825545698,  0.405654986879344 ]
    mass: 118.710000
    reduced_to: 10
  - symbol: Sn # 15
    coordinates: [  0.713881956846844,  0.449074825545698,  0.405654986879344 ]
    mass: 118.710000
    reduced_to: 10
  - symbol: Sn # 16
    coordinates: [  0.047215290180177,  0.782408158879031,  0.405654986879344 ]
    mass: 118.710000
    reduced_to: 10
  - symbol: Sn # 17
    coordinates: [  0.380548623513511,  0.782408158879031,  0.405654986879344 ]
    mass: 118.710000
    reduced_to: 10
  - symbol: Sn # 18
    coordinates: [  0.713881956846844,  0.782408158879031,  0.405654986879344 ]
    mass: 118.710000
    reduced_to: 10
  - symbol: Sn # 19
    coordinates: [  0.269491380090195,  0.227561458969503,  0.988607463121537 ]
    mass: 118.710000
    reduced_to: 19
  - symbol: Sn # 20
    coordinates: [  0.602824713423529,  0.227561458969503,  0.988607463121537 ]
    mass: 118.710000
    reduced_to: 19
  - symbol: Sn # 21
    coordinates: [  0.936158046756862,  0.227561458969503,  0.988607463121537 ]
    mass: 118.710000
    reduced_to: 19
  - symbol: Sn # 22
    coordinates: [  0.269491380090195,  0.560894792302836,  0.988607463121537 ]
    mass: 118.710000
    reduced_to: 19
  - symbol: Sn # 23
    coordinates: [  0.602824713423529,  0.560894792302836,  0.988607463121537 ]
    mass: 118.710000
    reduced_to: 19
  - symbol: Sn # 24
    coordinates: [  0.936158046756862,  0.560894792302836,  0.988607463121537 ]
    mass: 118.710000
    reduced_to: 19
  - symbol: Sn # 25
    coordinates: [  0.269491380090195,  0.894228125636169,  0.988607463121537 ]
    mass: 118.710000
    reduced_to: 19
  - symbol: Sn # 26
    coordinates: [  0.602824713423529,  0.894228125636169,  0.988607463121537 ]
    mass: 118.710000
    reduced_to: 19
  - symbol: Sn # 27
    coordinates: [  0.936158046756862,  0.894228125636169,  0.988607463121537 ]
    mass: 118.710000
    reduced_to: 19
  - symbol: Sn # 28
    coordinates: [  0.158441914853372,  0.004654296644067,  0.573366087183874 ]
    mass: 118.710000
    reduced_to: 28
  - symbol: Sn # 29
    coordinates: [  0.491775248186705,  0.004654296644067,  0.573366087183874 ]
    mass: 118.710000
    reduced_to: 28
  - symbol: Sn # 30
    coordinates: [  0.825108581520039,  0.004654296644067,  0.573366087183874 ]
    mass: 118.710000
    reduced_to: 28
  - symbol: Sn # 31
    coordinates: [  0.158441914853372,  0.337987629977401,  0.573366087183874 ]
    mass: 118.710000
    reduced_to: 28
  - symbol: Sn # 32
    coordinates: [  0.491775248186705,  0.337987629977401,  0.573366087183874 ]
    mass: 118.710000
    reduced_to: 28
  - symbol: Sn # 33
    coordinates: [  0.825108581520039,  0.337987629977401,  0.573366087183874 ]
    mass: 118.710000
    reduced_to: 28
  - symbol: Sn # 34
    coordinates: [  0.158441914853372,  0.671320963310734,  0.573366087183874 ]
    mass: 118.710000
    reduced_to: 28
  - symbol: Sn # 35
    coordinates: [  0.491775248186705,  0.671320963310734,  0.573366087183874 ]
    mass: 118.710000
    reduced_to: 28
  - symbol: Sn # 36
    coordinates: [  0.825108581520039,  0.671320963310734,  0.573366087183874 ]
    mass: 118.710000
    reduced_to: 28
  - symbol: Sn # 37
    coordinates: [  0.269577203177019,  0.227282861069374,  0.237306398368612 ]
    mass: 118.710000
    reduced_to: 37
  - symbol: Sn # 38
    coordinates: [  0.602910536510353,  0.227282861069374,  0.237306398368612 ]
    mass: 118.710000
    reduced_to: 37
  - symbol: Sn # 39
    coordinates: [  0.936243869843686,  0.227282861069374,  0.237306398368612 ]
    mass: 118.710000
    reduced_to: 37
  - symbol: Sn # 40
    coordinates: [  0.269577203177019,  0.560616194402707,  0.237306398368612 ]
    mass: 118.710000
    reduced_to: 37
  - symbol: Sn # 41
    coordinates: [  0.602910536510353,  0.560616194402707,  0.237306398368612 ]
    mass: 118.710000
    reduced_to: 37
  - symbol: Sn # 42
    coordinates: [  0.936243869843686,  0.560616194402707,  0.237306398368612 ]
    mass: 118.710000
    reduced_to: 37
  - symbol: Sn # 43
    coordinates: [  0.269577203177019,  0.893949527736041,  0.237306398368612 ]
    mass: 118.710000
    reduced_to: 37
  - symbol: Sn # 44
    coordinates: [  0.602910536510353,  0.893949527736041,  0.237306398368612 ]
    mass: 118.710000
    reduced_to: 37
  - symbol: Sn # 45
    coordinates: [  0.936243869843686,  0.893949527736041,  0.237306398368612 ]
    mass: 118.710000
    reduced_to: 37
  - symbol: Sn # 46
    coordinates: [  0.047395784550211,  0.116300616326775,  0.153658410247399 ]
    mass: 118.710000
    reduced_to: 46
  - symbol: Sn # 47
    coordinates: [  0.380729117883545,  0.116300616326775,  0.153658410247399 ]
    mass: 118.710000
    reduced_to: 46
  - symbol: Sn # 48
    coordinates: [  0.714062451216878,  0.116300616326775,  0.153658410247399 ]
    mass: 118.710000
    reduced_to: 46
  - symbol: Sn # 49
    coordinates: [  0.047395784550211,  0.449633949660108,  0.153658410247399 ]
    mass: 118.710000
    reduced_to: 46
  - symbol: Sn # 50
    coordinates: [  0.380729117883545,  0.449633949660108,  0.153658410247399 ]
    mass: 118.710000
    reduced_to: 46
  - symbol: Sn # 51
    coordinates: [  0.714062451216878,  0.449633949660108,  0.153658410247399 ]
    mass: 118.710000
    reduced_to: 46
  - symbol: Sn # 52
    coordinates: [  0.047395784550211,  0.782967282993441,  0.153658410247399 ]
    mass: 118.710000
    reduced_to: 46
  - symbol: Sn # 53
    coordinates: [  0.380729117883545,  0.782967282993441,  0.153658410247399 ]
    mass: 118.710000
    reduced_to: 46
  - symbol: Sn # 54
    coordinates: [  0.714062451216878,  0.782967282993441,  0.153658410247399 ]
    mass: 118.710000
    reduced_to: 46
  - symbol: Sn # 55
    coordinates: [  0.158380429934574,  0.004864269777113,  0.321313039064953 ]
    mass: 118.710000
    reduced_to: 55
  - symbol: Sn # 56
    coordinates: [  0.491713763267907,  0.004864269777113,  0.321313039064953 ]
    mass: 118.710000
    reduced_to: 55
  - symbol: Sn # 57
    coordinates: [  0.825047096601241,  0.004864269777113,  0.321313039064953 ]
    mass: 118.710000
    reduced_to: 55
  - symbol: Sn # 58
    coordinates: [  0.158380429934574,  0.338197603110446,  0.321313039064953 ]
    mass: 118.710000
    reduced_to: 55
  - symbol: Sn # 59
    coordinates: [  0.491713763267907,  0.338197603110446,  0.321313039064953 ]
    mass: 118.710000
    reduced_to: 55
  - symbol: Sn # 60
    coordinates: [  0.825047096601241,  0.338197603110446,  0.321313039064953 ]
    mass: 118.710000
    reduced_to: 55
  - symbol: Sn # 61
    coordinates: [  0.158380429934574,  0.671530936443780,  0.321313039064953 ]
    mass: 118.710000
    reduced_to: 55
  - symbol: Sn # 62
    coordinates: [  0.491713763267907,  0.671530936443780,  0.321313039064953 ]
    mass: 118.710000
    reduced_to: 55
  - symbol: Sn # 63
    coordinates: [  0.825047096601241,  0.671530936443780,  0.321313039064953 ]
    mass: 118.710000
    reduced_to: 55
  - symbol: Sn # 64
    coordinates: [  0.269526387841877,  0.226732795988880,  0.489747014541840 ]
    mass: 118.710000
    reduced_to: 64
  - symbol: Sn # 65
    coordinates: [  0.602859721175210,  0.226732795988880,  0.489747014541840 ]
    mass: 118.710000
    reduced_to: 64
  - symbol: Sn # 66
    coordinates: [  0.936193054508543,  0.226732795988880,  0.489747014541840 ]
    mass: 118.710000
    reduced_to: 64
  - symbol: Sn # 67
    coordinates: [  0.269526387841877,  0.560066129322213,  0.489747014541840 ]
    mass: 118.710000
    reduced_to: 64
  - symbol: Sn # 68
    coordinates: [  0.602859721175210,  0.560066129322213,  0.489747014541840 ]
    mass: 118.710000
    reduced_to: 64
  - symbol: Sn # 69
    coordinates: [  0.936193054508543,  0.560066129322213,  0.489747014541840 ]
    mass: 118.710000
    reduced_to: 64
  - symbol: Sn # 70
    coordinates: [  0.269526387841877,  0.893399462655546,  0.489747014541840 ]
    mass: 118.710000
    reduced_to: 64
  - symbol: Sn # 71
    coordinates: [  0.602859721175210,  0.893399462655546,  0.489747014541840 ]
    mass: 118.710000
    reduced_to: 64
  - symbol: Sn # 72
    coordinates: [  0.936193054508543,  0.893399462655546,  0.489747014541840 ]
    mass: 118.710000
    reduced_to: 64
  - symbol: Sn # 73
    coordinates: [  0.158257700233379,  0.005229749351615,  0.823865700711854 ]
    mass: 118.710000
    reduced_to: 73
  - symbol: Sn # 74
    coordinates: [  0.491591033566712,  0.005229749351615,  0.823865700711854 ]
    mass: 118.710000
    reduced_to: 73
  - symbol: Sn # 75
    coordinates: [  0.824924366900046,  0.005229749351615,  0.823865700711854 ]
    mass: 118.710000
    reduced_to: 73
  - symbol: Sn # 76
    coordinates: [  0.158257700233379,  0.338563082684949,  0.823865700711854 ]
    mass: 118.710000
    reduced_to: 73
  - symbol: Sn # 77
    coordinates: [  0.491591033566712,  0.338563082684949,  0.823865700711854 ]
    mass: 118.710000
    reduced_to: 73
  - symbol: Sn # 78
    coordinates: [  0.824924366900046,  0.338563082684949,  0.823865700711854 ]
    mass: 118.710000
    reduced_to: 73
  - symbol: Sn # 79
    coordinates: [  0.158257700233379,  0.671896416018282,  0.823865700711854 ]
    mass: 118.710000
    reduced_to: 73
  - symbol: Sn # 80
    coordinates: [  0.491591033566712,  0.671896416018282,  0.823865700711854 ]
    mass: 118.710000
    reduced_to: 73
  - symbol: Sn # 81
    coordinates: [  0.824924366900046,  0.671896416018282,  0.823865700711854 ]
    mass: 118.710000
    reduced_to: 73
  - symbol: Sn # 82
    coordinates: [  0.047283473708126,  0.115889347247697,  0.657237888178295 ]
    mass: 118.710000
    reduced_to: 82
  - symbol: Sn # 83
    coordinates: [  0.380616807041459,  0.115889347247697,  0.657237888178295 ]
    mass: 118.710000
    reduced_to: 82
  - symbol: Sn # 84
    coordinates: [  0.713950140374792,  0.115889347247697,  0.657237888178295 ]
    mass: 118.710000
    reduced_to: 82
  - symbol: Sn # 85
    coordinates: [  0.047283473708126,  0.449222680581030,  0.657237888178295 ]
    mass: 118.710000
    reduced_to: 82
  - symbol: Sn # 86
    coordinates: [  0.380616807041459,  0.449222680581030,  0.657237888178295 ]
    mass: 118.710000
    reduced_to: 82
  - symbol: Sn # 87
    coordinates: [  0.713950140374792,  0.449222680581030,  0.657237888178295 ]
    mass: 118.710000
    reduced_to: 82
  - symbol: Sn # 88
    coordinates: [  0.047283473708126,  0.782556013914363,  0.657237888178295 ]
    mass: 118.710000
    reduced_to: 82
  - symbol: Sn # 89
    coordinates: [  0.380616807041459,  0.782556013914363,  0.657237888178295 ]
    mass: 118.710000
    reduced_to: 82
  - symbol: Sn # 90
    coordinates: [  0.713950140374792,  0.782556013914363,  0.657237888178295 ]
    mass: 118.710000
    reduced_to: 82
  - symbol: Sn # 91
    coordinates: [  0.269396334078845,  0.227323989193183,  0.740633738653517 ]
    mass: 118.710000
    reduced_to: 91
  - symbol: Sn # 92
    coordinates: [  0.602729667412179,  0.227323989193183,  0.740633738653517 ]
    mass: 118.710000
    reduced_to: 91
  - symbol: Sn # 93
    coordinates: [  0.936063000745512,  0.227323989193183,  0.740633738653517 ]
    mass: 118.710000
    reduced_to: 91
  - symbol: Sn # 94
    coordinates: [  0.269396334078845,  0.560657322526516,  0.740633738653517 ]
    mass: 118.710000
    reduced_to: 91
  - symbol: Sn # 95
    coordinates: [  0.602729667412179,  0.560657322526516,  0.740633738653517 ]
    mass: 118.710000
    reduced_to: 91
  - symbol: Sn # 96
    coordinates: [  0.936063000745512,  0.560657322526516,  0.740633738653517 ]
    mass: 118.710000
    reduced_to: 91
  - symbol: Sn # 97
    coordinates: [  0.269396334078845,  0.893990655859849,  0.740633738653517 ]
    mass: 118.710000
    reduced_to: 91
  - symbol: Sn # 98
    coordinates: [  0.602729667412179,  0.893990655859849,  0.740633738653517 ]
    mass: 118.710000
    reduced_to: 91
  - symbol: Sn # 99
    coordinates: [  0.936063000745512,  0.893990655859849,  0.740633738653517 ]
    mass: 118.710000
    reduced_to: 91
  - symbol: Sn # 100
    coordinates: [  0.158391592380055,  0.005323920935307,  0.070835990659635 ]
    mass: 118.710000
    reduced_to: 100
  - symbol: Sn # 101
    coordinates: [  0.491724925713388,  0.005323920935307,  0.070835990659635 ]
    mass: 118.710000
    reduced_to: 100
  - symbol: Sn # 102
    coordinates: [  0.825058259046722,  0.005323920935307,  0.070835990659635 ]
    mass: 118.710000
    reduced_to: 100
  - symbol: Sn # 103
    coordinates: [  0.158391592380055,  0.338657254268640,  0.070835990659635 ]
    mass: 118.710000
    reduced_to: 100
  - symbol: Sn # 104
    coordinates: [  0.491724925713388,  0.338657254268640,  0.070835990659635 ]
    mass: 118.710000
    reduced_to: 100
  - symbol: Sn # 105
    coordinates: [  0.825058259046722,  0.338657254268640,  0.070835990659635 ]
    mass: 118.710000
    reduced_to: 100
  - symbol: Sn # 106
    coordinates: [  0.158391592380055,  0.671990587601973,  0.070835990659635 ]
    mass: 118.710000
    reduced_to: 100
  - symbol: Sn # 107
    coordinates: [  0.491724925713388,  0.671990587601973,  0.070835990659635 ]
    mass: 118.710000
    reduced_to: 100
  - symbol: Sn # 108
    coordinates: [  0.825058259046722,  0.671990587601973,  0.070835990659635 ]
    mass: 118.710000
    reduced_to: 100

displacements:
- atom:    1
  displacement:
    [   0.0100000000000000,  0.0000000000000000,  0.0000000000000000 ]
  forces:
  - [  -0.0159412827342749, -0.0003080198075622, -0.0144212581217289 ]
  - [   0.0001089975703508, -0.0003270979505032, -0.0144143346697092 ]
  - [   0.0000440769945271, -0.0002936788368970, -0.0143515383824706 ]
  - [   0.0000144852529047, -0.0003461455926299, -0.0144038852304220 ]
  - [   0.0000338065874530, -0.0002469224855304, -0.0143602639436722 ]
  - [  -0.0003550013061613, -0.0003069031517953, -0.0143842715770006 ]
  - [   0.0000257233768934, -0.0003207309637219, -0.0144402235746384 ]
  - [  -0.0003555086441338, -0.0003054024418816, -0.0143828643485904 ]
  - [   0.0000246453564614, -0.0002898552920669, -0.0143354404717684 ]
  - [   0.0005657657748088,  0.0017086181323975, -0.0094016119837761 ]
  - [   0.0005650439416058,  0.0017079657409340, -0.0094025805592537 ]
  - [   0.0005647218786180,  0.0017087945016101, -0.0094018671661615 ]
  - [   0.0005651814863086,  0.0017094518989325, -0.0094029568135738 ]
  - [   0.0005655298009515,  0.0017089766915888, -0.0094022285193205 ]
  - [   0.0005644225748256,  0.0017090060282499, -0.0094028897583485 ]
  - [   0.0005656067514792,  0.0017095191869885, -0.0094023039564490 ]
  - [   0.0005644271150231,  0.0017086863517761, -0.0094025740399957 ]
  - [   0.0005658040754497,  0.0017086286097765, -0.0094018746167421 ]
  - [   0.0030190525576472,  0.0007665818557143,  0.0052769421599805 ]
  - [   0.0012352610938251, -0.0011219289153814,  0.0021752514876425 ]
  - [   0.0028556985780597, -0.0028658499941230, -0.0006793574430048 ]
  - [   0.0003727227449417, -0.0011440785601735,  0.0021483413875103 ]
  - [   0.0005570119246840, -0.0007485337555408,  0.0019233282655478 ]
  - [   0.0005536563694477, -0.0015382478013635,  0.0023727342486382 ]
  - [   0.0005095710512251, -0.0012023523449898,  0.0022515621967614 ]
  - [   0.0005108751356602, -0.0010408479720354,  0.0021291431039572 ]
  - [  -0.0002122022560798, -0.0010950043797493,  0.0021678567864001 ]
  - [  -0.0017753603169695,  0.0009671901352704, -0.0017561474815011 ]
  - [  -0.0019366426859051,  0.0009925699559972, -0.0017997906543314 ]
  - [  -0.0017752265557647,  0.0010173000628129, -0.0018426561728120 ]
  - [  -0.0018181396881118,  0.0009914210531861, -0.0017997454851866 ]
  - [  -0.0018340469105169,  0.0009624992962927, -0.0017664167098701 ]
  - [  -0.0018349975580350,  0.0010207695886493, -0.0018318109214306 ]
  - [  -0.0018503804458305,  0.0010402146726847, -0.0017894138582051 ]
  - [  -0.0018505167681724,  0.0009418721310794, -0.0018107309006155 ]
  - [  -0.0017835253383964,  0.0009919474832714, -0.0017993133515120 ]
  - [  -0.0003999478649348, -0.0007263547740877,  0.0249445885419846 ]
  - [  -0.0005671808030456, -0.0007522035157308,  0.0249921455979347 ]
  - [  -0.0003975362051278, -0.0007792145479470,  0.0250347312539816 ]
  - [  -0.0004076806362718, -0.0007516783662140,  0.0249900240451097 ]
  - [  -0.0004798853769898, -0.0008029658347368,  0.0249791722744703 ]
  - [  -0.0004796648863703, -0.0006996922893450,  0.0250024497509003 ]
  - [  -0.0004615551733878, -0.0007215023506433,  0.0249552968889475 ]
  - [  -0.0004616443766281, -0.0007826110813767,  0.0250232815742493 ]
  - [  -0.0004431279376149, -0.0007507912814617,  0.0249891113489866 ]
  - [  -0.0013824843335897, -0.0003913585096598,  0.0368631072342396 ]
  - [  -0.0014645243063569, -0.0005334110464901,  0.0369141139090061 ]
  - [  -0.0014638847205788, -0.0002444976707920,  0.0368086248636246 ]
  - [  -0.0016957705374807, -0.0003793556243181,  0.0369141511619091 ]
  - [  -0.0016935516614467, -0.0004026929382235,  0.0368106104433537 ]
  - [  -0.0009196015889756, -0.0003911762032658,  0.0368613600730896 ]
  - [  -0.0014428789727390, -0.0005263546481729,  0.0369695685803890 ]
  - [  -0.0014234543778002, -0.0003918716683984,  0.0368627198040485 ]
  - [  -0.0014441893436015, -0.0002586850896478,  0.0367574989795685 ]
  - [   0.0008250738028437, -0.0002032672055066,  0.0099422689527273 ]
  - [   0.0008367060218006, -0.0001985128037632,  0.0099316854029894 ]
  - [   0.0008247899822891, -0.0001946643460542,  0.0099201221019030 ]
  - [   0.0008173465030268, -0.0001989209558815,  0.0099301896989346 ]
  - [   0.0008339553605765, -0.0001965637784451,  0.0099370889365673 ]
  - [   0.0008339988416992, -0.0001999328378588,  0.0099253691732883 ]
  - [   0.0008273050189018, -0.0002039142418653,  0.0099358111619949 ]
  - [   0.0008259320748039, -0.0001929057762027,  0.0099263647571206 ]
  - [   0.0008314335718751, -0.0001976778730750,  0.0099323783069849 ]
  - [  -0.0022686594165862,  0.0029985536821187, -0.0151366777718067 ]
  - [  -0.0022572143934667,  0.0029951254837215, -0.0151248481124640 ]
  - [  -0.0022689606994390,  0.0029906458221376, -0.0151142049580812 ]
  - [  -0.0022624451667070,  0.0029943953268230, -0.0151247903704643 ]
  - [  -0.0022664354182780,  0.0029999515973032, -0.0151300672441721 ]
  - [  -0.0022658240050077,  0.0029891598969698, -0.0151205444708467 ]
  - [  -0.0022583925165236,  0.0029923645779490, -0.0151330307126045 ]
  - [  -0.0022581263910979,  0.0029954481869936, -0.0151207447052002 ]
  - [  -0.0022752713412046,  0.0029938996303827, -0.0151258939877152 ]
  - [   0.0047239419072866, -0.0031518710311502, -0.0329279042780399 ]
  - [   0.0029228203929961, -0.0012832847423851, -0.0299093183130026 ]
  - [   0.0045309383422136,  0.0004435814917088, -0.0271122306585312 ]
  - [   0.0014987136237323, -0.0013291565701365, -0.0298635307699442 ]
  - [   0.0021972819231451, -0.0011860635131598, -0.0299661625176668 ]
  - [   0.0021923133172095, -0.0013587174471468, -0.0298440475016832 ]
  - [   0.0022369516082108, -0.0016725054010749, -0.0296811833977699 ]
  - [   0.0022408161312342, -0.0008703013882041, -0.0301261898130178 ]
  - [   0.0020413422025740, -0.0012807324528694, -0.0299007426947355 ]
  - [  -0.0016158632934093,  0.0015867021866143, -0.0133703444153070 ]
  - [  -0.0016987400595099,  0.0017295876750723, -0.0134254759177566 ]
  - [  -0.0016985480906442,  0.0014404255198315, -0.0133156497031450 ]
  - [  -0.0016775634139776,  0.0014569628983736, -0.0132658723741770 ]
  - [  -0.0016788654029369,  0.0017220135778189, -0.0134796500205994 ]
  - [  -0.0016495294403285,  0.0015897050034255, -0.0133651746436954 ]
  - [  -0.0019256391096860,  0.0015998373273760, -0.0133192632347345 ]
  - [  -0.0011535361409187,  0.0015897396951914, -0.0133614204823971 ]
  - [  -0.0019267816096544,  0.0015738569200039, -0.0134263504296541 ]
  - [   0.0024083065800369, -0.0017090300098062, -0.0184410288929939 ]
  - [   0.0018158564344049, -0.0017389534041286, -0.0181930847465992 ]
  - [   0.0024182898923755, -0.0017851293087006, -0.0179241467267275 ]
  - [   0.0020474763587117, -0.0017459457740188, -0.0181899331510067 ]
  - [   0.0021639526821673, -0.0019509876146913, -0.0180940851569176 ]
  - [   0.0021719653159380, -0.0015330612659454, -0.0183048062026501 ]
  - [   0.0030205463990569, -0.0023129552137107, -0.0191481318324804 ]
  - [   0.0030392138287425, -0.0011622947640717, -0.0172341130673885 ]
  - [   0.0023431871086359, -0.0017333519645035, -0.0181801430881023 ]
  - [   0.0019402471370995, -0.0015336924698204,  0.0284611769020557 ]
  - [   0.0013642547419295, -0.0014915738720447,  0.0282151810824871 ]
  - [   0.0019458001479506, -0.0014376211911440,  0.0279590729624033 ]
  - [   0.0018565244972706, -0.0014855917543173,  0.0282270908355713 ]
  - [   0.0025983182713389, -0.0009065810590982,  0.0291722267866135 ]
  - [   0.0025994433090091, -0.0020665465854108,  0.0272735524922609 ]
  - [   0.0017190333455801, -0.0012790607288480,  0.0281193032860756 ]
  - [   0.0017191953957081, -0.0016900161281228,  0.0283358283340931 ]
  - [   0.0015924377366900, -0.0014845672994852,  0.0282287448644638 ]
- atom:    1
  displacement:
    [  -0.0100000000000000,  0.0000000000000000,  0.0000000000000000 ]
  forces:
  - [   0.0156296417117119, -0.0003274851478636, -0.0143632246181369 ]
  - [  -0.0003558941534720, -0.0002935237716883, -0.0143532063812017 ]
  - [  -0.0004214965738356, -0.0003257128410041, -0.0144141502678394 ]
  - [  -0.0003389114863239, -0.0002602282911539, -0.0143609475344419 ]
  - [  -0.0003375723608769, -0.0003582269418985, -0.0144026027992368 ]
  - [   0.0000432224478573, -0.0003090782556683, -0.0143840573728085 ]
  - [  -0.0003273674228694, -0.0003034854307771, -0.0143334921449423 ]
  - [   0.0000426596961915, -0.0003070101374760, -0.0143834808841348 ]
  - [  -0.0003462878521532, -0.0003354019718245, -0.0144394291564822 ]
  - [   0.0005648946389556,  0.0017088274471462, -0.0094017991796136 ]
  - [   0.0005654635024257,  0.0017078990349546, -0.0094024036079645 ]
  - [   0.0005654630367644,  0.0017085708677769, -0.0094019733369350 ]
  - [   0.0005649272352457,  0.0017089270986617, -0.0094028487801552 ]
  - [   0.0005648126825690,  0.0017095985822380, -0.0094028050079942 ]
  - [   0.0005649472586811,  0.0017094463109970, -0.0094034355133772 ]
  - [   0.0005652453983203,  0.0017086374573410, -0.0094016613438725 ]
  - [   0.0005651768296957,  0.0017085354775190, -0.0094026736915112 ]
  - [   0.0005655405111611,  0.0017093177884817, -0.0094022117555141 ]
  - [  -0.0018823575228453, -0.0028680115938187, -0.0006886036135256 ]
  - [  -0.0002511222846806, -0.0011203335598111,  0.0021765395067632 ]
  - [  -0.0020277118310332,  0.0007620239630342,  0.0052625522948802 ]
  - [   0.0006153304129839, -0.0011391434818506,  0.0021444763988256 ]
  - [   0.0004351343959570, -0.0015428708866239,  0.0023744348436594 ]
  - [   0.0004327837377787, -0.0007538823410869,  0.0019242689013481 ]
  - [   0.0004742487799376, -0.0010431297123432,  0.0021317750215530 ]
  - [   0.0004695805255324, -0.0012049460783601,  0.0022525582462549 ]
  - [   0.0011924160644412, -0.0010730056092143,  0.0021582753397524 ]
  - [  -0.0018841095734388,  0.0010163428960368, -0.0018436592072248 ]
  - [  -0.0017202529124916,  0.0009923430625349, -0.0017995061352849 ]
  - [  -0.0018832490313798,  0.0009674625471234, -0.0017555444501340 ]
  - [  -0.0018397860694677,  0.0009913432877511, -0.0017991610802710 ]
  - [  -0.0018233504379168,  0.0010210000909865, -0.0018312809988856 ]