# Thermal properties / unit cell (natom)

unit:
  temperature:   K
  free_energy:   kJ/mol
  entropy:       J/K/mol
  heat_capacity: J/K/mol

natom: 12   
cutoff_frequency: 0.00000
num_modes: 194400
num_integrated_modes: 194399

zero_point_energy:      43.3186805

thermal_properties:
- temperature:         0.0000000
  free_energy:        43.3186805
  entropy:             0.0000000
  heat_capacity:       0.0000000
  energy:             43.3186805

- temperature:        10.0000000
  free_energy:        43.3170176
  entropy:             0.5736668
  heat_capacity:       1.8198491
  energy:             43.3227543

- temperature:        20.0000000
  free_energy:        43.2907313
  entropy:             6.0733831
  heat_capacity:      19.8389083
  energy:             43.4121990

- temperature:        30.0000000
  free_energy:        43.1668441
  entropy:            19.8643292
  heat_capacity:      50.5568885
  energy:             43.7627740

- temperature:        40.0000000
  free_energy:        42.8783039
  entropy:            38.2516791
  heat_capacity:      77.3766520
  energy:             44.4083710

- temperature:        50.0000000
  free_energy:        42.3982021
  entropy:            57.7939390
  heat_capacity:      97.6070059
  energy:             45.2878991

- temperature:        60.0000000
  free_energy:        41.7234672
  entropy:            77.0567675
  heat_capacity:     113.7197901
  energy:             46.3468733

- temperature:        70.0000000
  free_energy:        40.8592768
  entropy:            95.6672193
  heat_capacity:     127.8973529
  energy:             47.5559821

- temperature:        80.0000000
  free_energy:        39.8123206
  entropy:           113.6201900
  heat_capacity:     141.1847945
  energy:             48.9019358

- temperature:        90.0000000
  free_energy:        38.5888222
  entropy:           130.9877522
  heat_capacity:     153.8747897
  energy:             50.3777199

- temperature:       100.0000000
  free_energy:        37.1943127
  entropy:           147.8302568
  heat_capacity:     165.9347111
  energy:             51.9773384

- temperature:       110.0000000
  free_energy:        35.6338489
  entropy:           164.1825905
  heat_capacity:     177.2515674
  energy:             53.6939338

- temperature:       120.0000000
  free_energy:        33.9122389
  entropy:           180.0612033
  heat_capacity:     187.7342571
  energy:             55.5195833

- temperature:       130.0000000
  free_energy:        32.0341800
  entropy:           195.4731775
  heat_capacity:     197.3407048
  energy:             57.4456931

- temperature:       140.0000000
  free_energy:        30.0043173
  entropy:           210.4226160
  heat_capacity:     206.0740489
  energy:             59.4634835

- temperature:       150.0000000
  free_energy:        27.8272542
  entropy:           224.9141727
  heat_capacity:     213.9698521
  energy:             61.5643801

- temperature:       160.0000000
  free_energy:        25.5075379
  entropy:           238.9545868
  heat_capacity:     221.0833383
  energy:             63.7402718

- temperature:       170.0000000
  free_energy:        23.0496359
  entropy:           252.5530559
  heat_capacity:     227.4794610
  energy:             65.9836554

- temperature:       180.0000000
  free_energy:        20.4579120
  entropy:           265.7210231
  heat_capacity:     233.2260721
  energy:             68.2876961

- temperature:       190.0000000
  free_energy:        17.7366064
  entropy:           278.4717226
  heat_capacity:     238.3896241
  energy:             70.6462337

- temperature:       200.0000000
  free_energy:        14.8898201
  entropy:           290.8196708
  heat_capacity:     243.0327044
  energy:             73.0537543

- temperature:       210.0000000
  free_energy:        11.9215045
  entropy:           302.7801937
  heat_capacity:     247.2128010
  energy:             75.5053451

- temperature:       220.0000000
  free_energy:         8.8354552
  entropy:           314.3690252
  heat_capacity:     250.9818505
  energy:             77.9966408

- temperature:       230.0000000
  free_energy:         5.6353102
  entropy:           325.6019873
  heat_capacity:     254.3862576
  energy:             80.5237673

- temperature:       240.0000000
  free_energy:         2.3245495
  entropy:           336.4947447
  heat_capacity:     257.4671815
  energy:             83.0832882

- temperature:       250.0000000
  free_energy:        -1.0935018
  entropy:           347.0626242
  heat_capacity:     260.2609542
  energy:             85.6721542

- temperature:       260.0000000
  free_energy:        -4.6156697
  entropy:           357.3204878
  heat_capacity:     262.7995536
  energy:             88.2876571

- temperature:       270.0000000
  free_energy:        -8.2389260
  entropy:           367.2826471
  heat_capacity:     265.1110802
  energy:             90.9273887

- temperature:       280.0000000
  free_energy:       -11.9603827
  entropy:           376.9628112
  heat_capacity:     267.2202116
  energy:             93.5892044

- temperature:       290.0000000
  free_energy:       -15.7772859
  entropy:           386.3740578
  heat_capacity:     269.1486220
  energy:             96.2711909

- temperature:       300.0000000
  free_energy:       -19.6870090
  entropy:           395.5288240
  heat_capacity:     270.9153591
  energy:             98.9716382

- temperature:       310.0000000
  free_energy:       -23.6870468
  entropy:           404.4389098
  heat_capacity:     272.5371800
  energy:            101.6890152

- temperature:       320.0000000
  free_energy:       -27.7750089
  entropy:           413.1154908
  heat_capacity:     274.0288456
  energy:            104.4219481

- temperature:       330.0000000
  free_energy:       -31.9486136
  entropy:           421.5691377
  heat_capacity:     275.4033785
  energy:            107.1692019

- temperature:       340.0000000
  free_energy:       -36.2056819
  entropy:           429.8098403
  heat_capacity:     276.6722867
  energy:            109.9296638

- temperature:       350.0000000
  free_energy:       -40.5441321
  entropy:           437.8470334
  heat_capacity:     277.8457583
  energy:            112.7023296

- temperature:       360.0000000
  free_energy:       -44.9619740
  entropy:           445.6896251
  heat_capacity:     278.9328289
  energy:            115.4862910

- temperature:       370.0000000
  free_energy:       -49.4573040
  entropy:           453.3460244
  heat_capacity:     279.9415280
  energy:            118.2807250

- temperature:       380.0000000
  free_energy:       -54.0283003
  entropy:           460.8241700
  heat_capacity:     280.8790042
  energy:            121.0848843

- temperature:       390.0000000
  free_energy:       -58.6732183
  entropy:           468.1315572
  heat_capacity:     281.7516344
  energy:            123.8980890

- temperature:       400.0000000
  free_energy:       -63.3903859
  entropy:           475.2752645
  heat_capacity:     282.5651178
  energy:            126.7197199

- temperature:       410.0000000
  free_energy:       -68.1782003
  entropy:           482.2619795
  heat_capacity:     283.3245579
  energy:            129.5492113

- temperature:       420.0000000
  free_energy:       -73.0351233
  entropy:           489.0980227
  heat_capacity:     284.0345332
  energy:            132.3860462

- temperature:       430.0000000
  free_energy:       -77.9596785
  entropy:           495.7893705
  heat_capacity:     284.6991591
  energy:            135.2297509

- temperature:       440.0000000
  free_energy:       -82.9504473
  entropy:           502.3416770
  heat_capacity:     285.3221411
  energy:            138.0798906

- temperature:       450.0000000
  free_energy:       -88.0060664
  entropy:           508.7602943
  heat_capacity:     285.9068218
  energy:            140.9360660

- temperature:       460.0000000
  free_energy:       -93.1252245
  entropy:           515.0502912
  heat_capacity:     286.4562220
  energy:            143.7979095

- temperature:       470.0000000
  free_energy:       -98.3066595
  entropy:           521.2164714
  heat_capacity:     286.9730758
  energy:            146.6650820

- temperature:       480.0000000
  free_energy:      -103.5491564
  entropy:           527.2633900
  heat_capacity:     287.4598625
  energy:            149.5372708

- temperature:       490.0000000
  free_energy:      -108.8515442
  entropy:           533.1953690
  heat_capacity:     287.9188336
  energy:            152.4141866

- temperature:       500.0000000
  free_energy:      -114.2126943
  entropy:           539.0165118
  heat_capacity:     288.3520372
  energy:            155.2955616

- temperature:       510.0000000
  free_energy:      -119.6315180
  entropy:           544.7307170
  heat_capacity:     288.7613394
  energy:            158.1811477

- temperature:       520.0000000
  free_energy:      -125.1069646
  entropy:           550.3416904
  heat_capacity:     289.1484426
  energy:            161.0707144

- temperature:       530.0000000
  free_energy:      -130.6380195
  entropy:           555.8529570
  heat_capacity:     289.5149028
  energy:            163.9640477

- temperature:       540.0000000
  free_energy:      -136.2237026
  entropy:           561.2678722
  heat_capacity:     289.8621435
  energy:            166.8609484

- temperature:       550.0000000
  free_energy:      -141.8630664
  entropy:           566.5896315
  heat_capacity:     290.1914695
  energy:            169.7612309

- temperature:       560.0000000
  free_energy:      -147.5551948
  entropy:           571.8212802
  heat_capacity:     290.5040779
  energy:            172.6647221

- temperature:       570.0000000
  free_energy:      -153.2992014
  entropy:           576.9657224
  heat_capacity:     290.8010687
  energy:            175.5712604

- temperature:       580.0000000
  free_energy:      -159.0942279
  entropy:           582.0257287
  heat_capacity:     291.0834540
  energy:            178.4806948

- temperature:       590.0000000
  free_energy:      -164.9394433
  entropy:           587.0039444
  heat_capacity:     291.3521660
  energy:            181.3928839

- temperature:       600.0000000
  free_energy:      -170.8340425
  entropy:           591.9028966
  heat_capacity:     291.6080647
  energy:            184.3076954

- temperature:       610.0000000
  free_energy:      -176.7772451
  entropy:           596.7250004
  heat_capacity:     291.8519440
  energy:            187.2250051

- temperature:       620.0000000
  free_energy:      -182.7682941
  entropy:           601.4725658
  heat_capacity:     292.0845381
  energy:            190.1446967

- temperature:       630.0000000
  free_energy:      -188.8064553
  entropy:           606.1478030
  heat_capacity:     292.3065263
  energy:            193.0666606

- temperature:       640.0000000
  free_energy:      -194.8910161
  entropy:           610.7528282
  heat_capacity:     292.5185381
  energy:            195.9907939

- temperature:       650.0000000
  free_energy:      -201.0212846
  entropy:           615.2896687
  heat_capacity:     292.7211574
  energy:            198.9170000

- temperature:       660.0000000
  free_energy:      -207.1965887
  entropy:           619.7602671
  heat_capacity:     292.9149264
  energy:            201.8451876

- temperature:       670.0000000
  free_energy:      -213.4162754
  entropy:           624.1664867
  heat_capacity:     293.1003490
  energy:            204.7752707

- temperature:       680.0000000
  free_energy:      -219.6797098
  entropy:           628.5101149
  heat_capacity:     293.2778942
  energy:            207.7071683

- temperature:       690.0000000
  free_energy:      -225.9862748
  entropy:           632.7928675
  heat_capacity:     293.4479985
  energy:            210.6408038

- temperature:       700.0000000
  free_energy:      -232.3353697
  entropy:           637.0163923
  heat_capacity:     293.6110690
  energy:            213.5761048

- temperature:       710.0000000
  free_energy:      -238.7264105
  entropy:           641.1822725
  heat_capacity:     293.7674854
  energy:            216.5130030

- temperature:       720.0000000
  free_energy:      -245.1588281
  entropy:           645.2920301
  heat_capacity:     293.9176025
  energy:            219.4514336

- temperature:       730.0000000
  free_energy:      -251.6320689
  entropy:           649.3471288
  heat_capacity:     294.0617518
  energy:            222.3913352

- temperature:       740.0000000
  free_energy:      -258.1455932
  entropy:           653.3489769
  heat_capacity:     294.2002434
  energy:            225.3326497

- temperature:       750.0000000
  free_energy:      -264.6988754
  entropy:           657.2989301
  heat_capacity:     294.3333678
  energy:            228.2753221

- temperature:       760.0000000
  free_energy:      -271.2914032
  entropy:           661.1982938
  heat_capacity:     294.4613969
  energy:            231.2193001

- temperature:       770.0000000
  free_energy:      -277.9226769
  entropy:           665.0483258
  heat_capacity:     294.5845861
  energy:            234.1645340

- temperature:       780.0000000
  free_energy:      -284.5922093
  entropy:           668.8502382
  heat_capacity:     294.7031747
  energy:            237.1109765

- temperature:       790.0000000
  free_energy:      -291.2995251
  entropy:           672.6052000
  heat_capacity:     294.8173879
  energy:            240.0585829

- temperature:       800.0000000
  free_energy:      -298.0441606
  entropy:           676.3143387
  heat_capacity:     294.9274369
  energy:            243.0073104

- temperature:       810.0000000
  free_energy:      -304.8256628
  entropy:           679.9787422
  heat_capacity:     295.0335208
  energy:            245.9571184

- temperature:       820.0000000
  free_energy:      -311.6435898
  entropy:           683.5994610
  heat_capacity:     295.1358268
  energy:            248.9079682

- temperature:       830.0000000
  free_energy:      -318.4975098
  entropy:           687.1775093
  heat_capacity:     295.2345312
  energy:            251.8598229

- temperature:       840.0000000
  free_energy:      -325.3870010
  entropy:           690.7138671
  heat_capacity:     295.3298003
  energy:            254.8126474

- temperature:       850.0000000
  free_energy:      -332.3116513
  entropy:           694.2094816
  heat_capacity:     295.4217909
  energy:            257.7664080

- temperature:       860.0000000
  free_energy:      -339.2710579
  entropy:           697.6652682
  heat_capacity:     295.5106510
  energy:            260.7210728

- temperature:       870.0000000
  free_energy:      -346.2648269
  entropy:           701.0821126
  heat_capacity:     295.5965204
  energy:            263.6766111

- temperature:       880.0000000
  free_energy:      -353.2925732
  entropy:           704.4608714
  heat_capacity:     295.6795312
  energy:            266.6329936

- temperature:       890.0000000
  free_energy:      -360.3539201
  entropy:           707.8023738
  heat_capacity:     295.7598083
  energy:            269.5901926

- temperature:       900.0000000
  free_energy:      -367.4484992
  entropy:           711.1074225
  heat_capacity:     295.8374699
  energy:            272.5481811

- temperature:       910.0000000
  free_energy:      -374.5759497
  entropy:           714.3767948
  heat_capacity:     295.9126281
  energy:            275.5069336

- temperature:       920.0000000
  free_energy:      -381.7359186
  entropy:           717.6112438
  heat_capacity:     295.9853887
  energy:            278.4664257

- temperature:       930.0000000
  free_energy:      -388.9280606
  entropy:           720.8114992
  heat_capacity:     296.0558522
  energy:            281.4266337

- temperature:       940.0000000
  free_energy:      -396.1520370
  entropy:           723.9782685
  heat_capacity:     296.1241140
  energy:            284.3875354

- temperature:       950.0000000
  free_energy:      -403.4075166
  entropy:           727.1122374
  heat_capacity:     296.1902645
  energy:            287.3491090

- temperature:       960.0000000
  free_energy:      -410.6941746
  entropy:           730.2140714
  heat_capacity:     296.2543896
  energy:            290.3113339

- temperature:       970.0000000
  free_energy:      -418.0116931
  entropy:           733.2844158
  heat_capacity:     296.3165707
  energy:            293.2741903

- temperature:       980.0000000
  free_energy:      -425.3597601
  entropy:           736.3238971
  heat_capacity:     296.3768854
  energy:            296.2376591

- temperature:       990.0000000
  free_energy:      -432.7380702
  entropy:           739.3331234
  heat_capacity:     296.4354074
  energy:            299.2017220

- temperature:      1000.0000000
  free_energy:      -440.1463237
  entropy:           742.3126852
  heat_capacity:     296.4922068
  energy:            302.1663615
