phonopy:
  version: "2.37.1"
  frequency_unit_conversion_factor: 15.633302
  symmetry_tolerance: 1.00000e-05

space_group:
  type: "P1"
  number: 1
  Hall_symbol: "P 1"

primitive_matrix:
- [ -1.000000000000000,  0.000000000000000, -1.000000000000000 ]
- [  0.000000000000000, -1.000000000000000,  0.000000000000000 ]
- [  0.000000000000000,  0.000000000000000,  1.000000000000000 ]

supercell_matrix:
- [   3,   0,   0 ]
- [   0,   2,   0 ]
- [   0,   0,   1 ]

primitive_cell:
  lattice:
  - [    -4.417214873734854,     0.000000000000000,     0.000000000000000 ] # a
  - [    -2.208549540659297,    -5.152171229041509,     0.000000000000000 ] # b
  - [    -2.208580080532523,    -1.802067286628632,     9.611392672625405 ] # c
  points:
  - symbol: Li # 1
    coordinates: [  0.862310078224766,  0.133853493230157,  0.643744987573244 ]
    mass: 6.940000
  - symbol: Li # 2
    coordinates: [  0.862127171662052,  0.469444199497270,  0.309611120408780 ]
    mass: 6.940000
  - symbol: Li # 3
    coordinates: [  0.862122728934581,  0.802097186484729,  0.976834623576721 ]
    mass: 6.940000
  - symbol: Sn # 4
    coordinates: [  0.198641705546210,  0.573815924303699,  0.531657976342059 ]
    mass: 118.710000
  - symbol: Sn # 5
    coordinates: [  0.525409604943552,  0.029603309232068,  0.422202353434425 ]
    mass: 118.710000
  - symbol: Sn # 6
    coordinates: [  0.525192654031312,  0.363391304442919,  0.088928203789723 ]
    mass: 118.710000
  - symbol: Sn # 7
    coordinates: [  0.198290264481631,  0.908239011987764,  0.198070251445685 ]
    mass: 118.710000
  - symbol: Sn # 8
    coordinates: [  0.525688064592190,  0.695691957744419,  0.755756739629048 ]
    mass: 118.710000
  - symbol: Sn # 9
    coordinates: [  0.198504621254837,  0.240647292990239,  0.864780261990574 ]
    mass: 118.710000
  reciprocal_lattice: # without 2pi
  - [    -0.226386994652691,     0.097043920092007,    -0.033825913079539 ] # a*
  - [    -0.000000000000000,    -0.194092928116063,    -0.036391033873802 ] # b*
  - [    -0.000000000000000,    -0.000000000000000,     0.104043194785719 ] # c*

unit_cell:
  lattice:
  - [     4.417214873734854,     0.000000000000000,     0.000000000000000 ] # a
  - [     2.208549540659297,     5.152171229041509,     0.000000000000000 ] # b
  - [     2.208634793202331,    -1.802067286628632,     9.611392672625405 ] # c
  points:
  - symbol: Li # 1
    coordinates: [  0.493944934201990,  0.866146506769843,  0.643744987573244 ]
    mass: 6.940000
    reduced_to: 1
  - symbol: Li # 2
    coordinates: [  0.828261707929168,  0.530555800502730,  0.309611120408780 ]
    mass: 6.940000
    reduced_to: 2
  - symbol: Li # 3
    coordinates: [  0.161042647488699,  0.197902813515271,  0.976834623576721 ]
    mass: 6.940000
    reduced_to: 3
  - symbol: Sn # 4
    coordinates: [  0.269700318111731,  0.426184075696301,  0.531657976342059 ]
    mass: 118.710000
    reduced_to: 4
  - symbol: Sn # 5
    coordinates: [  0.052388041622023,  0.970396690767932,  0.422202353434425 ]
    mass: 118.710000
    reduced_to: 5
  - symbol: Sn # 6
    coordinates: [  0.385879142178965,  0.636608695557081,  0.088928203789723 ]
    mass: 118.710000
    reduced_to: 6
  - symbol: Sn # 7
    coordinates: [  0.603639484072684,  0.091760988012236,  0.198070251445685 ]
    mass: 118.710000
    reduced_to: 7
  - symbol: Sn # 8
    coordinates: [  0.718555195778762,  0.304308042255581,  0.755756739629048 ]
    mass: 118.710000
    reduced_to: 8
  - symbol: Sn # 9
    coordinates: [  0.936715116754590,  0.759352707009761,  0.864780261990574 ]
    mass: 118.710000
    reduced_to: 9

supercell:
  lattice:
  - [    13.251644621204562,     0.000000000000000,     0.000000000000000 ] # a
  - [     4.417099081318594,    10.304342458083019,     0.000000000000000 ] # b
  - [     2.208634793202331,    -1.802067286628632,     9.611392672625405 ] # c
  points:
  - symbol: Li # 1
    coordinates: [  0.164648311400663,  0.433073253384921,  0.643744987573244 ]
    mass: 6.940000
    reduced_to: 1
  - symbol: Li # 2
    coordinates: [  0.497981644733997,  0.433073253384921,  0.643744987573244 ]
    mass: 6.940000
    reduced_to: 1
  - symbol: Li # 3
    coordinates: [  0.831314978067330,  0.433073253384921,  0.643744987573244 ]
    mass: 6.940000
    reduced_to: 1
  - symbol: Li # 4
    coordinates: [  0.164648311400663,  0.933073253384922,  0.643744987573244 ]
    mass: 6.940000
    reduced_to: 1
  - symbol: Li # 5
    coordinates: [  0.497981644733997,  0.933073253384922,  0.643744987573244 ]
    mass: 6.940000
    reduced_to: 1
  - symbol: Li # 6
    coordinates: [  0.831314978067330,  0.933073253384922,  0.643744987573244 ]
    mass: 6.940000
    reduced_to: 1
  - symbol: Li # 7
    coordinates: [  0.276087235976389,  0.265277900251365,  0.309611120408780 ]
    mass: 6.940000
    reduced_to: 7
  - symbol: Li # 8
    coordinates: [  0.609420569309723,  0.265277900251365,  0.309611120408780 ]
    mass: 6.940000
    reduced_to: 7
  - symbol: Li # 9
    coordinates: [  0.942753902643056,  0.265277900251365,  0.309611120408780 ]
    mass: 6.940000
    reduced_to: 7
  - symbol: Li # 10
    coordinates: [  0.276087235976389,  0.765277900251365,  0.309611120408780 ]
    mass: 6.940000
    reduced_to: 7
  - symbol: Li # 11
    coordinates: [  0.609420569309723,  0.765277900251365,  0.309611120408780 ]
    mass: 6.940000
    reduced_to: 7
  - symbol: Li # 12
    coordinates: [  0.942753902643056,  0.765277900251365,  0.309611120408780 ]
    mass: 6.940000
    reduced_to: 7
  - symbol: Li # 13
    coordinates: [  0.053680882496233,  0.098951406757635,  0.976834623576721 ]
    mass: 6.940000
    reduced_to: 13
  - symbol: Li # 14
    coordinates: [  0.387014215829566,  0.098951406757635,  0.976834623576721 ]
    mass: 6.940000
    reduced_to: 13
  - symbol: Li # 15
    coordinates: [  0.720347549162900,  0.098951406757635,  0.976834623576721 ]
    mass: 6.940000
    reduced_to: 13
  - symbol: Li # 16
    coordinates: [  0.053680882496233,  0.598951406757635,  0.976834623576721 ]
    mass: 6.940000
    reduced_to: 13
  - symbol: Li # 17
    coordinates: [  0.387014215829566,  0.598951406757635,  0.976834623576721 ]
    mass: 6.940000
    reduced_to: 13
  - symbol: Li # 18
    coordinates: [  0.720347549162900,  0.598951406757635,  0.976834623576721 ]
    mass: 6.940000
    reduced_to: 13
  - symbol: Sn # 19
    coordinates: [  0.089900106037244,  0.213092037848150,  0.531657976342059 ]
    mass: 118.710000
    reduced_to: 19
  - symbol: Sn # 20
    coordinates: [  0.423233439370577,  0.213092037848150,  0.531657976342059 ]
    mass: 118.710000
    reduced_to: 19
  - symbol: Sn # 21
    coordinates: [  0.756566772703910,  0.213092037848150,  0.531657976342059 ]
    mass: 118.710000
    reduced_to: 19
  - symbol: Sn # 22
    coordinates: [  0.089900106037244,  0.713092037848150,  0.531657976342059 ]
    mass: 118.710000
    reduced_to: 19
  - symbol: Sn # 23
    coordinates: [  0.423233439370577,  0.713092037848150,  0.531657976342059 ]
    mass: 118.710000
    reduced_to: 19
  - symbol: Sn # 24
    coordinates: [  0.756566772703910,  0.713092037848150,  0.531657976342059 ]
    mass: 118.710000
    reduced_to: 19
  - symbol: Sn # 25
    coordinates: [  0.017462680540674,  0.485198345383966,  0.422202353434425 ]
    mass: 118.710000
    reduced_to: 25
  - symbol: Sn # 26
    coordinates: [  0.350796013874007,  0.485198345383966,  0.422202353434425 ]
    mass: 118.710000
    reduced_to: 25
  - symbol: Sn # 27
    coordinates: [  0.684129347207341,  0.485198345383966,  0.422202353434425 ]
    mass: 118.710000
    reduced_to: 25
  - symbol: Sn # 28
    coordinates: [  0.017462680540674,  0.985198345383966,  0.422202353434425 ]
    mass: 118.710000
    reduced_to: 25
  - symbol: Sn # 29
    coordinates: [  0.350796013874007,  0.985198345383966,  0.422202353434425 ]
    mass: 118.710000
    reduced_to: 25
  - symbol: Sn # 30
    coordinates: [  0.684129347207341,  0.985198345383966,  0.422202353434425 ]
    mass: 118.710000
    reduced_to: 25
  - symbol: Sn # 31
    coordinates: [  0.128626380726322,  0.318304347778540,  0.088928203789723 ]
    mass: 118.710000
    reduced_to: 31
  - symbol: Sn # 32
    coordinates: [  0.461959714059655,  0.318304347778540,  0.088928203789723 ]
    mass: 118.710000
    reduced_to: 31
  - symbol: Sn # 33
    coordinates: [  0.795293047392988,  0.318304347778540,  0.088928203789723 ]
    mass: 118.710000
    reduced_to: 31
  - symbol: Sn # 34
    coordinates: [  0.128626380726322,  0.818304347778540,  0.088928203789723 ]
    mass: 118.710000
    reduced_to: 31
  - symbol: Sn # 35
    coordinates: [  0.461959714059655,  0.818304347778540,  0.088928203789723 ]
    mass: 118.710000
    reduced_to: 31
  - symbol: Sn # 36
    coordinates: [  0.795293047392988,  0.818304347778540,  0.088928203789723 ]
    mass: 118.710000
    reduced_to: 31
  - symbol: Sn # 37
    coordinates: [  0.201213161357561,  0.045880494006118,  0.198070251445685 ]
    mass: 118.710000
    reduced_to: 37
  - symbol: Sn # 38
    coordinates: [  0.534546494690895,  0.045880494006118,  0.198070251445685 ]
    mass: 118.710000
    reduced_to: 37
  - symbol: Sn # 39
    coordinates: [  0.867879828024228,  0.045880494006118,  0.198070251445685 ]
    mass: 118.710000
    reduced_to: 37
  - symbol: Sn # 40
    coordinates: [  0.201213161357561,  0.545880494006118,  0.198070251445685 ]
    mass: 118.710000
    reduced_to: 37
  - symbol: Sn # 41
    coordinates: [  0.534546494690895,  0.545880494006118,  0.198070251445685 ]
    mass: 118.710000
    reduced_to: 37
  - symbol: Sn # 42
    coordinates: [  0.867879828024228,  0.545880494006118,  0.198070251445685 ]
    mass: 118.710000
    reduced_to: 37
  - symbol: Sn # 43
    coordinates: [  0.239518398592921,  0.152154021127790,  0.755756739629048 ]
    mass: 118.710000
    reduced_to: 43
  - symbol: Sn # 44
    coordinates: [  0.572851731926254,  0.152154021127790,  0.755756739629048 ]
    mass: 118.710000
    reduced_to: 43
  - symbol: Sn # 45
    coordinates: [  0.906185065259587,  0.152154021127790,  0.755756739629048 ]
    mass: 118.710000
    reduced_to: 43
  - symbol: Sn # 46
    coordinates: [  0.239518398592921,  0.652154021127790,  0.755756739629048 ]
    mass: 118.710000
    reduced_to: 43
  - symbol: Sn # 47
    coordinates: [  0.572851731926254,  0.652154021127790,  0.755756739629048 ]
    mass: 118.710000
    reduced_to: 43
  - symbol: Sn # 48
    coordinates: [  0.906185065259587,  0.652154021127790,  0.755756739629048 ]
    mass: 118.710000
    reduced_to: 43
  - symbol: Sn # 49
    coordinates: [  0.312238372251530,  0.379676353504881,  0.864780261990574 ]
    mass: 118.710000
    reduced_to: 49
  - symbol: Sn # 50
    coordinates: [  0.645571705584863,  0.379676353504881,  0.864780261990574 ]
    mass: 118.710000
    reduced_to: 49
  - symbol: Sn # 51
    coordinates: [  0.978905038918196,  0.379676353504881,  0.864780261990574 ]
    mass: 118.710000
    reduced_to: 49
  - symbol: Sn # 52
    coordinates: [  0.312238372251530,  0.879676353504881,  0.864780261990574 ]
    mass: 118.710000
    reduced_to: 49
  - symbol: Sn # 53
    coordinates: [  0.645571705584863,  0.879676353504881,  0.864780261990574 ]
    mass: 118.710000
    reduced_to: 49
  - symbol: Sn # 54
    coordinates: [  0.978905038918196,  0.879676353504881,  0.864780261990574 ]
    mass: 118.710000
    reduced_to: 49

displacements:
- atom:    1
  displacement:
    [   0.0100000000000000,  0.0000000000000000,  0.0000000000000000 ]
  forces:
  - [  -0.0173141658306122, -0.0061727147549391, -0.0024497620761395 ]
  - [  -0.0014875140041113, -0.0061511276289821, -0.0024571474641562 ]
  - [  -0.0014886555727571, -0.0061596445739269, -0.0024547688663006 ]
  - [  -0.0014813747256994, -0.0060591888613999, -0.0025170696899295 ]
  - [  -0.0015284009277821, -0.0062081948854029, -0.0024244096130133 ]
  - [  -0.0015268656425178, -0.0062105730175972, -0.0024224827066064 ]
  - [   0.0017550060292706,  0.0021012120414525,  0.0074902903288603 ]
  - [   0.0021982253529131,  0.0020096530206501,  0.0072956373915076 ]
  - [   0.0021208007819951,  0.0021345226559788,  0.0077340062707663 ]
  - [   0.0019521480426192,  0.0021129767410457,  0.0074943047948182 ]
  - [   0.0019031628035009,  0.0021136435680091,  0.0075138024985790 ]
  - [   0.0020400502253324,  0.0020155245438218,  0.0075199883431196 ]
  - [   0.0015457745175809,  0.0004818853922188,  0.0002733385190368 ]
  - [   0.0016283299773932,  0.0003933813422918,  0.0002951084170491 ]
  - [   0.0014964737929404,  0.0004883478395641,  0.0002901114057750 ]
  - [   0.0013449973193929,  0.0004709609784186,  0.0002696765586734 ]
  - [   0.0017211943631992,  0.0005055149085820,  0.0005214526318014 ]
  - [   0.0017915177159011,  0.0003848588094115,  0.0000750436447561 ]
  - [   0.0018290044972673,  0.0016411822289228, -0.0040536122396588 ]
  - [   0.0018583239289001, -0.0026928484439850, -0.0060635032132268 ]
  - [   0.0000840689535835, -0.0004868619143963, -0.0050139008089900 ]
  - [  -0.0004010665579699, -0.0004661176353693, -0.0050360048189759 ]
  - [  -0.0001495050382800, -0.0005146749317646, -0.0050218338146806 ]
  - [  -0.0001495348260505, -0.0004872679710388, -0.0050358171574771 ]
  - [   0.0011805056128651,  0.0002767369151115,  0.0040065534412861 ]
  - [   0.0012467480264604,  0.0024165399372578, -0.0003305552527308 ]
  - [  -0.0005558095290326,  0.0013475399464369,  0.0018783435225487 ]
  - [  -0.0006123869097792,  0.0013826638460159,  0.0019208411686122 ]
  - [  -0.0005692213308066,  0.0013857819139957,  0.0018547885119915 ]
  - [  -0.0006552418926731,  0.0012292433530092,  0.0018524047918618 ]
  - [  -0.0007255012169480,  0.0015355367213488, -0.0003216732293367 ]
  - [  -0.0008242971962318,  0.0014987420290709, -0.0003094049170613 ]
  - [  -0.0007830642862245,  0.0015522763133049, -0.0004003704525530 ]
  - [  -0.0008254703134298,  0.0015334635972977, -0.0003122799098492 ]
  - [  -0.0008072201162577,  0.0015621148049831, -0.0003508417867124 ]
  - [  -0.0008495254442096,  0.0014961790293455, -0.0003722757101059 ]
  - [  -0.0000149799525389,  0.0004841350018978, -0.0000988761894405 ]
  - [  -0.0000449197686976,  0.0004405640065670, -0.0001637088134885 ]
  - [  -0.0000037190256990,  0.0005052257329226, -0.0001424453221262 ]
  - [   0.0000817235049908,  0.0004823338240385, -0.0001090820878744 ]
  - [   0.0000234755643760,  0.0005027670413256, -0.0001908624544740 ]
  - [  -0.0000168084225152,  0.0004478991031647, -0.0001065731048584 ]
  - [   0.0003744878631551,  0.0009036492556334, -0.0008831964805722 ]
  - [   0.0006168350228108,  0.0008683092892170, -0.0008782949298620 ]
  - [   0.0006179559859447,  0.0008429512381554, -0.0008673705160618 ]
  - [   0.0027010166086257,  0.0031338520348072,  0.0001708408817649 ]
  - [   0.0008574146777391,  0.0008692741394043, -0.0008578915148973 ]
  - [   0.0026339106261730, -0.0013123396784067, -0.0019060475751758 ]
  - [   0.0007571326568723, -0.0012074410915375,  0.0013665147125721 ]
  - [  -0.0010272071231157, -0.0000860560685396, -0.0008275248110294 ]
  - [   0.0007370039820671,  0.0009617581963539, -0.0029583093710244 ]
  - [  -0.0010862546041608, -0.0000443626195192, -0.0007870593108237 ]
  - [  -0.0011335536837578, -0.0002023298293352, -0.0008469186723232 ]
  - [  -0.0010350467637181, -0.0000514686107635, -0.0008511664345860 ]
- atom:    1
  displacement:
    [  -0.0100000000000000,  0.0000000000000000,  0.0000000000000000 ]
  forces:
  - [   0.0142043009400368, -0.0061473352834582, -0.0024612382985651 ]
  - [  -0.0016196060460061, -0.0061663240194321, -0.0024522077292204 ]
  - [  -0.0016208003507927, -0.0061584678478539, -0.0024555101990700 ]
  - [  -0.0016258060932159, -0.0062585119158030, -0.0023923730477691 ]
  - [  -0.0015791896730661, -0.0061101354658604, -0.0024851229973137 ]
  - [  -0.0015775682404637, -0.0061083547770977, -0.0024868652690202 ]
  - [   0.0021345890127122,  0.0020628392230719,  0.0075255418196321 ]
  - [   0.0016946484101936,  0.0021534361876547,  0.0077171418815851 ]
  - [   0.0017665298655629,  0.0020286138169467,  0.0072779799811542 ]
  - [   0.0019357854034752,  0.0020486519206315,  0.0075238393619657 ]
  - [   0.0019874703139067,  0.0020476740319282,  0.0075044427067041 ]
  - [   0.0018530783709139,  0.0021452698856592,  0.0074987942352891 ]
  - [   0.0015298116486520,  0.0004284856840968,  0.0002999177668244 ]
  - [   0.0014455416239798,  0.0005159177817404,  0.0002775804605335 ]
  - [   0.0015782439149916,  0.0004202579148114,  0.0002821686211973 ]
  - [   0.0017279179301113,  0.0004356810823083,  0.0003053802065551 ]
  - [   0.0013569378061220,  0.0004034251905978,  0.0000562667846680 ]
  - [   0.0012801699340343,  0.0005242028273642,  0.0005034729838371 ]
  - [  -0.0019227762240916, -0.0026829466223717, -0.0060383863747120 ]
  - [  -0.0018740608356893,  0.0016521513462067, -0.0040295151993632 ]
  - [  -0.0001395027647959, -0.0004866067320108, -0.0050512319430709 ]
  - [   0.0003438690619078, -0.0005203150212765, -0.0050233341753483 ]
  - [   0.0000943163977354, -0.0004617534577847, -0.0050413724966347 ]
  - [   0.0000944393541431, -0.0004900302737951, -0.0050283060409129 ]
  - [  -0.0025649769231677,  0.0024275369942188, -0.0003203228116035 ]
  - [  -0.0025519765913486,  0.0002870056778193,  0.0040180860087276 ]
  - [  -0.0007888205000199,  0.0013219974935055,  0.0018745986744761 ]
  - [  -0.0007338960422203,  0.0012804046273232,  0.0018311184830964 ]
  - [  -0.0007772049866617,  0.0012855157256126,  0.0018984428606927 ]
  - [  -0.0006905122427270,  0.0014388822019100,  0.0018992405384779 ]
  - [  -0.0009032473899424,  0.0015249904245138, -0.0003691455349326 ]
  - [  -0.0008083871798590,  0.0015611425042152, -0.0003770873881876 ]
  - [  -0.0008494114736095,  0.0015042703598738, -0.0002882173284888 ]
  - [  -0.0008073048666120,  0.0015276018530130, -0.0003764284774661 ]
  - [  -0.0008247143123299,  0.0015003774315119, -0.0003377823159099 ]
  - [  -0.0007791160605848,  0.0015639774501324, -0.0003192108124495 ]
  - [  -0.0000025066037779,  0.0004699565470219, -0.0001703929156065 ]
  - [   0.0000224025061470,  0.0005132611840963, -0.0001056855544448 ]
  - [  -0.0000157953036251,  0.0004461854696274, -0.0001295655965805 ]
  - [  -0.0001041162031470,  0.0004709307104349, -0.0001595630310476 ]
  - [  -0.0000440924195573,  0.0004518255591393, -0.0000792229548097 ]
  - [  -0.0000014859397197,  0.0005067065358162, -0.0001656287349761 ]
  - [   0.0011056842049584,  0.0008476879447699, -0.0008729659020901 ]
  - [   0.0008613886311650,  0.0008733477443457, -0.0008726790547371 ]
  - [   0.0008646049536765,  0.0008964128792286, -0.0008845152333379 ]
  - [  -0.0011777058243752, -0.0013283379375935, -0.0018943874165416 ]
  - [   0.0006239106878638,  0.0008686948567629, -0.0008955588564277 ]
  - [  -0.0011905226856470,  0.0031207129359245,  0.0001823217608035 ]
  - [  -0.0030038496479392,  0.0009737443178892, -0.0029593193903565 ]
  - [  -0.0012580677866936, -0.0001116450875998, -0.0008309055119753 ]
  - [  -0.0030586323700845, -0.0011943746358156,  0.0013632159680128 ]
  - [  -0.0011999038979411, -0.0001536011695862, -0.0008694985881448 ]
  - [  -0.0011544143781066,  0.0000020898878574, -0.0008096476085484 ]
  - [  -0.0012556329602376, -0.0001530796289444, -0.0008063605055213 ]
- atom:    1
  displacement:
    [   0.0039399105983310,  0.0091911427187896,  0.0000000000000000 ]
  forces:
  - [  -0.0077779991552234, -0.0190754607319832, -0.0018307429272681 ]
  - [  -0.0015294509939849, -0.0062296884134412, -0.0024943887256086 ]
  - [  -0.0015201325295493, -0.0062327114865184, -0.0024930513463914 ]
  - [  -0.0014335741288960, -0.0057974448427558, -0.0023917187936604 ]
  - [  -0.0015913471579552, -0.0060382275842130, -0.0024153057020158 ]
  - [  -0.0015865811146796, -0.0060352357104421, -0.0024173907004297 ]
  - [   0.0018873275257647,  0.0023673172108829,  0.0077068614773452 ]
  - [   0.0019764127209783,  0.0020013193134218,  0.0074604507535696 ]
  - [   0.0020653188694268,  0.0021017263643444,  0.0076482254080474 ]
  - [   0.0019772509112954,  0.0021277728956193,  0.0073901517316699 ]
  - [   0.0019578910432756,  0.0020709582604468,  0.0075048236176372 ]
  - [   0.0019246772862971,  0.0021136649884284,  0.0074114827439189 ]
  - [   0.0015648109838367,  0.0004927092231810,  0.0001722380984575 ]
  - [   0.0015161619521677,  0.0004881438799202,  0.0001930706202984 ]
  - [   0.0015536844730377,  0.0004430525004864,  0.0002815686166286 ]
  - [   0.0014776356983930,  0.0007442310452461,  0.0005013439804316 ]
  - [   0.0016557866474614,  0.0004723588936031,  0.0004268535412848 ]
  - [   0.0015750135062262,  0.0003726929426193,  0.0002350225113332 ]
  - [   0.0022930782288313,  0.0017836764454842, -0.0036482624709606 ]
  - [  -0.0009093352127820,  0.0001155752688646, -0.0044136149808764 ]
  - [   0.0000036181118048, -0.0004987828433514, -0.0050234310328960 ]
  - [  -0.0001821593759814,  0.0018492471426725, -0.0059240180999041 ]
  - [  -0.0001617421949049, -0.0005742162466049, -0.0050147389993072 ]
  - [   0.0000059956437326, -0.0005158148705959, -0.0050219260156155 ]
  - [  -0.0008234799606726,  0.0009533260017633,  0.0018689446151257 ]
  - [   0.0009793469216675,  0.0018051341176033,  0.0001679030247033 ]
  - [  -0.0006156482850201,  0.0013272855430841,  0.0018690414726734 ]
  - [  -0.0006053978577256,  0.0016258638352156,  0.0018654568120837 ]
  - [  -0.0006393105140887,  0.0016374662518501,  0.0019184886477888 ]
  - [  -0.0007038621697575,  0.0013993643224239,  0.0018854439258575 ]
  - [  -0.0007406121585518,  0.0015703719109297, -0.0004084287211299 ]
  - [  -0.0008826442644931,  0.0015156064182520, -0.0003822855651379 ]
  - [  -0.0007788958027959,  0.0015398319810629, -0.0003777034580708 ]
  - [  -0.0008481610566378,  0.0015773046761751, -0.0002636653371155 ]
  - [  -0.0008219620212913,  0.0015472229570150, -0.0003124261274934 ]
  - [  -0.0007913380395621,  0.0015580877661705, -0.0002942187711596 ]
  - [  -0.0000327929301420,  0.0005305744707584, -0.0000508865341544 ]
  - [   0.0000104119899333,  0.0005053207278252, -0.0000826679170132 ]
  - [  -0.0000201078437385,  0.0004920922219753, -0.0001091724261642 ]
  - [   0.0000639406789560,  0.0005120784044266, -0.0001835888251662 ]
  - [   0.0000247795760515,  0.0004897806793451, -0.0001677335239947 ]
  - [  -0.0000725479621906,  0.0004603173583746, -0.0001749172806740 ]
  - [   0.0006107148947194,  0.0030687134712934, -0.0017009237781167 ]
  - [   0.0007709698984399,  0.0008458364754915, -0.0008679535239935 ]
  - [   0.0006089979433455,  0.0007833931595087, -0.0008604321628809 ]
  - [   0.0032346709631383,  0.0032670646905899,  0.0006108158268034 ]
  - [   0.0007759830914438,  0.0008527748286724, -0.0008703470230103 ]
  - [  -0.0001693945378065,  0.0014622677117586, -0.0002452759072185 ]
  - [  -0.0013131548184901, -0.0004722289741039, -0.0008525522425771 ]
  - [  -0.0010879777837545, -0.0001079086214304, -0.0008354885503650 ]
  - [   0.0004857508465648,  0.0003996565937996, -0.0025002607144415 ]
  - [  -0.0010858951136470,  0.0002019312232733, -0.0008505536243320 ]
  - [  -0.0011677290312946, -0.0000384133309126, -0.0008224472403526 ]
  - [  -0.0011070515029132,  0.0001430194824934, -0.0008156374096870 ]
- atom:    1
  displacement:
    [  -0.0039399105983310, -0.0091911427187896,  0.0000000000000000 ]
  forces:
  - [   0.0046653058379889,  0.0067527182400227, -0.0030780779197812 ]
  - [  -0.0015804825816303, -0.0060880356468260, -0.0024154793936759 ]
  - [  -0.0015863333828747, -0.0060848616994917, -0.0024168780073524 ]
  - [  -0.0016735731624067, -0.0065198857337236, -0.0025180885568261 ]
  - [  -0.0015175505541265, -0.0062840292230248, -0.0024936092086136 ]
  - [  -0.0015164487995207, -0.0062794690020382, -0.0024927230551839 ]
  - [   0.0020020673982799,  0.0017956384690478,  0.0073077976703644 ]
  - [   0.0019105989485979,  0.0021635440643877,  0.0075577744282782 ]
  - [   0.0018271188018844,  0.0020630061626434,  0.0073685506358743 ]
  - [   0.0019122842932120,  0.0020383931696415,  0.0076256375759840 ]
  - [   0.0019308263435960,  0.0020908224396408,  0.0075128721073270 ]
  - [   0.0019699768163264,  0.0020486810244620,  0.0076056309044361 ]
  - [   0.0015092379180714,  0.0004132739268243,  0.0004031450953335 ]
  - [   0.0015561655163765,  0.0004194802604616,  0.0003812154754996 ]
  - [   0.0015230597928166,  0.0004650005139410,  0.0002914906945080 ]
  - [   0.0015955355484039,  0.0001635579392314,  0.0000743619166315 ]
  - [   0.0014173142844811,  0.0004352550022304,  0.0001463815569878 ]
  - [   0.0015026431065053,  0.0005347635596991,  0.0003379280678928 ]
  - [  -0.0024394891224802, -0.0028246454894543, -0.0064711072482169 ]
  - [   0.0008670720271766, -0.0010811947286129, -0.0056572156026959 ]
  - [  -0.0000605611421634, -0.0004749167710543, -0.0050414302386343 ]
  - [   0.0001114204133046, -0.0027441866695881, -0.0041753463447094 ]
  - [   0.0001037704059854, -0.0004016607999802, -0.0050484039820731 ]
  - [  -0.0000604729721090, -0.0004616435617208, -0.0050416765734553 ]
  - [  -0.0005150715587661,  0.0017102342098951,  0.0018890402279794 ]
  - [  -0.0022917671594769,  0.0008555110543966,  0.0035477466881275 ]
  - [  -0.0007279175333679,  0.0013432912528515,  0.0018824692815542 ]
  - [  -0.0007371779065579,  0.0010370407253504,  0.0018891231156886 ]
  - [  -0.0007079656934366,  0.0010502077639103,  0.0018437327817082 ]
  - [  -0.0006437279516831,  0.0012699011713266,  0.0018662656657398 ]
  - [  -0.0008892688783817,  0.0014931075274944, -0.0002844734117389 ]
  - [  -0.0007513570017181,  0.0015477091073990, -0.0003056866116822 ]
  - [  -0.0008508753380738,  0.0015178732573986, -0.0003116447478533 ]
  - [  -0.0007864562794566,  0.0014822706580162, -0.0004241312853992 ]
  - [  -0.0008086257148534,  0.0015153158456087, -0.0003735045902431 ]
  - [  -0.0008375681936741,  0.0015027839690447, -0.0003964952193201 ]
  - [   0.0000170910461748,  0.0004245620220900, -0.0002189688384533 ]
  - [  -0.0000326968729496,  0.0004472434520721, -0.0001874724403024 ]
  - [  -0.0000011214870028,  0.0004592128098011, -0.0001643477007747 ]
  - [  -0.0000850629294291,  0.0004381053149700, -0.0000832169316709 ]
  - [  -0.0000478238798678,  0.0004638638347387, -0.0001017544418573 ]
  - [   0.0000554022517463,  0.0004917234182358, -0.0000961869955063 ]
  - [   0.0008825964760035, -0.0014034826308489, -0.0000180490314960 ]
  - [   0.0007064867531881,  0.0008956938982010, -0.0008833706378937 ]
  - [   0.0008758023614064,  0.0009554121643305, -0.0008915606886148 ]
  - [  -0.0016563069075346, -0.0014623329043388, -0.0023069782182574 ]
  - [   0.0007069283165038,  0.0008850842714310, -0.0008841948583722 ]
  - [   0.0016405899077654,  0.0002700891345739, -0.0015017129480839 ]
  - [  -0.0009789043106139,  0.0002797152847052, -0.0008104480803013 ]
  - [  -0.0011983367148787, -0.0000906623899937, -0.0008214768022299 ]
  - [  -0.0028012082912028, -0.0005895830690861,  0.0008795838803053 ]
  - [  -0.0012040548026562, -0.0004004351794720, -0.0008084839209914 ]
  - [  -0.0011186539195478, -0.0001631304621696, -0.0008347174152732 ]
  - [  -0.0011824909597635, -0.0003659352660179, -0.0008518490940332 ]
- atom:    1
  displacement:
    [   0.0022030857834934, -0.0017975397436865,  0.0095872448545157 ]
  forces:
  - [  -0.0050194598734379, -0.0029905126430094, -0.0143029252067208 ]
  - [  -0.0015382431447506, -0.0061827423051000, -0.0026369928382337 ]
  - [  -0.0015436507528648, -0.0061849569901824, -0.0026361469645053 ]
  - [  -0.0016153263859451, -0.0061080246232450, -0.0025237994268537 ]
  - [  -0.0015082312747836, -0.0061714816838503, -0.0024930306244642 ]
  - [  -0.0015087244100869, -0.0061704525724053, -0.0024932646192610 ]
  - [   0.0018824040889740,  0.0022407516371459,  0.0082445014268160 ]
  - [   0.0018101830501109,  0.0021123462356627,  0.0075972108170390 ]
  - [   0.0021930076181889,  0.0021459832787514,  0.0076312795281410 ]
  - [   0.0019263665890321,  0.0019651008769870,  0.0076206824742258 ]
  - [   0.0019349427893758,  0.0020859495270997,  0.0074644535779953 ]
  - [   0.0019879413302988,  0.0019496856257319,  0.0075137456879020 ]
  - [   0.0015218440676108,  0.0003397851251066,  0.0003979452885687 ]
  - [   0.0015768841840327,  0.0003270031884313,  0.0003034693654627 ]
  - [   0.0015258388593793,  0.0004602512344718,  0.0002430190797895 ]
  - [   0.0014736739685759,  0.0006399573758245,  0.0011000921949744 ]
  - [   0.0017917766235769,  0.0005163382738829,  0.0004143333062530 ]
  - [   0.0014018801739439,  0.0004827477969229,  0.0003777812235057 ]
  - [   0.0006854501552880,  0.0006757751107216, -0.0047093406319618 ]
  - [   0.0000673727117828, -0.0002703424543142, -0.0051577836275101 ]
  - [   0.0000039855476643, -0.0004906412214041, -0.0050565656274557 ]
  - [  -0.0001135772472480, -0.0017930231988430, -0.0047485213726759 ]
  - [  -0.0000098047166830, -0.0004787743091583, -0.0050039971247315 ]
  - [  -0.0000926969805732, -0.0004416182637215, -0.0050188014283776 ]
  - [   0.0014284354401752,  0.0003402102738619,  0.0042602159082890 ]
  - [  -0.0019721672870219,  0.0007858555763960,  0.0033373665064573 ]
  - [  -0.0006530967075378,  0.0013438947498798,  0.0018556155264378 ]
  - [  -0.0006409213528968,  0.0012507382780313,  0.0019699763506651 ]
  - [  -0.0006465409533121,  0.0014590397477150,  0.0019567599520087 ]
  - [  -0.0006920066662133,  0.0013119336217642,  0.0019096145406365 ]
  - [  -0.0008242655312642,  0.0013664588332176, -0.0000260011292994 ]
  - [  -0.0007340223528445,  0.0014836955815554, -0.0001852624118328 ]
  - [  -0.0008624439942650,  0.0015340838581324, -0.0002873833291233 ]
  - [  -0.0008081663399935,  0.0015894211828709, -0.0003455914556980 ]
  - [  -0.0008066375739872,  0.0014748945832253, -0.0003427914343774 ]
  - [  -0.0008389994036406,  0.0015299934893847, -0.0003341482952237 ]
  - [  -0.0000033595279092,  0.0005351789295673, -0.0001377617008984 ]
  - [  -0.0000334749638569,  0.0004728175699711, -0.0001275520771742 ]