phonopy:
  version: "2.37.1"
  frequency_unit_conversion_factor: 15.633302
  symmetry_tolerance: 1.00000e-05

space_group:
  type: "Pm-3m"
  number: 221
  Hall_symbol: "-P 4 2 3"

primitive_matrix:
- [  1.000000000000000, -0.000000000000000,  0.000000000000000 ]
- [  0.000000000000000,  1.000000000000000,  0.000000000000000 ]
- [  0.000000000000000,  0.000000000000000,  1.000000000000000 ]

supercell_matrix:
- [   3,   0,   0 ]
- [   0,   3,   0 ]
- [   0,   0,   3 ]

primitive_cell:
  lattice:
  - [     3.459747814192717,     0.000000000000000,     0.000000000000000 ] # a
  - [    -0.000000043080075,     3.459747748344157,     0.000000000000000 ] # b
  - [    -0.000000034711458,    -0.000000051880630,     3.459747766346521 ] # c
  points:
  - symbol: Li # 1
    coordinates: [  0.000000007143271,  0.000000007172655,  0.000000008057407 ]
    mass: 6.940000
  - symbol: Sn # 2
    coordinates: [  0.499999992844031,  0.499999992802492,  0.499999991984391 ]
    mass: 118.710000
  reciprocal_lattice: # without 2pi
  - [     0.289038407914519,     0.000000003599047,     0.000000002899906 ] # a*
  - [     0.000000000000000,     0.289038413415719,     0.000000004334274 ] # b*
  - [     0.000000000000000,     0.000000000000000,     0.289038411911743 ] # c*

unit_cell:
  lattice:
  - [     3.459747814192718,     0.000000000000000,     0.000000000000000 ] # a
  - [    -0.000000043080075,     3.459747748344158,     0.000000000000000 ] # b
  - [    -0.000000034711458,    -0.000000051880630,     3.459747766346522 ] # c
  points:
  - symbol: Li # 1
    coordinates: [  0.000000007143271,  0.000000007172655,  0.000000008057407 ]
    mass: 6.940000
    reduced_to: 1
  - symbol: Sn # 2
    coordinates: [  0.499999992844031,  0.499999992802492,  0.499999991984391 ]
    mass: 118.710000
    reduced_to: 2

supercell:
  lattice:
  - [    10.379243442578154,     0.000000000000000,     0.000000000000000 ] # a
  - [    -0.000000129240226,    10.379243245032475,     0.000000000000000 ] # b
  - [    -0.000000104134373,    -0.000000155641890,    10.379243299039565 ] # c
  points:
  - symbol: Li # 1
    coordinates: [  0.000000002381090,  0.000000002390885,  0.000000002685802 ]
    mass: 6.940000
    reduced_to: 1
  - symbol: Li # 2
    coordinates: [  0.333333335714424,  0.000000002390885,  0.000000002685802 ]
    mass: 6.940000
    reduced_to: 1
  - symbol: Li # 3
    coordinates: [  0.666666669047757,  0.000000002390885,  0.000000002685802 ]
    mass: 6.940000
    reduced_to: 1
  - symbol: Li # 4
    coordinates: [  0.000000002381090,  0.333333335724218,  0.000000002685802 ]
    mass: 6.940000
    reduced_to: 1
  - symbol: Li # 5
    coordinates: [  0.333333335714424,  0.333333335724218,  0.000000002685802 ]
    mass: 6.940000
    reduced_to: 1
  - symbol: Li # 6
    coordinates: [  0.666666669047757,  0.333333335724218,  0.000000002685802 ]
    mass: 6.940000
    reduced_to: 1
  - symbol: Li # 7
    coordinates: [  0.000000002381090,  0.666666669057552,  0.000000002685802 ]
    mass: 6.940000
    reduced_to: 1
  - symbol: Li # 8
    coordinates: [  0.333333335714424,  0.666666669057552,  0.000000002685802 ]
    mass: 6.940000
    reduced_to: 1
  - symbol: Li # 9
    coordinates: [  0.666666669047757,  0.666666669057552,  0.000000002685802 ]
    mass: 6.940000
    reduced_to: 1
  - symbol: Li # 10
    coordinates: [  0.000000002381090,  0.000000002390885,  0.333333336019136 ]
    mass: 6.940000
    reduced_to: 1
  - symbol: Li # 11
    coordinates: [  0.333333335714424,  0.000000002390885,  0.333333336019136 ]
    mass: 6.940000
    reduced_to: 1
  - symbol: Li # 12
    coordinates: [  0.666666669047757,  0.000000002390885,  0.333333336019136 ]
    mass: 6.940000
    reduced_to: 1
  - symbol: Li # 13
    coordinates: [  0.000000002381090,  0.333333335724218,  0.333333336019136 ]
    mass: 6.940000
    reduced_to: 1
  - symbol: Li # 14
    coordinates: [  0.333333335714424,  0.333333335724218,  0.333333336019136 ]
    mass: 6.940000
    reduced_to: 1
  - symbol: Li # 15
    coordinates: [  0.666666669047757,  0.333333335724218,  0.333333336019136 ]
    mass: 6.940000
    reduced_to: 1
  - symbol: Li # 16
    coordinates: [  0.000000002381090,  0.666666669057552,  0.333333336019136 ]
    mass: 6.940000
    reduced_to: 1
  - symbol: Li # 17
    coordinates: [  0.333333335714424,  0.666666669057552,  0.333333336019136 ]
    mass: 6.940000
    reduced_to: 1
  - symbol: Li # 18
    coordinates: [  0.666666669047757,  0.666666669057552,  0.333333336019136 ]
    mass: 6.940000
    reduced_to: 1
  - symbol: Li # 19
    coordinates: [  0.000000002381090,  0.000000002390885,  0.666666669352469 ]
    mass: 6.940000
    reduced_to: 1
  - symbol: Li # 20
    coordinates: [  0.333333335714424,  0.000000002390885,  0.666666669352469 ]
    mass: 6.940000
    reduced_to: 1
  - symbol: Li # 21
    coordinates: [  0.666666669047757,  0.000000002390885,  0.666666669352469 ]
    mass: 6.940000
    reduced_to: 1
  - symbol: Li # 22
    coordinates: [  0.000000002381090,  0.333333335724218,  0.666666669352469 ]
    mass: 6.940000
    reduced_to: 1
  - symbol: Li # 23
    coordinates: [  0.333333335714424,  0.333333335724218,  0.666666669352469 ]
    mass: 6.940000
    reduced_to: 1
  - symbol: Li # 24
    coordinates: [  0.666666669047757,  0.333333335724218,  0.666666669352469 ]
    mass: 6.940000
    reduced_to: 1
  - symbol: Li # 25
    coordinates: [  0.000000002381090,  0.666666669057552,  0.666666669352469 ]
    mass: 6.940000
    reduced_to: 1
  - symbol: Li # 26
    coordinates: [  0.333333335714424,  0.666666669057552,  0.666666669352469 ]
    mass: 6.940000
    reduced_to: 1
  - symbol: Li # 27
    coordinates: [  0.666666669047757,  0.666666669057552,  0.666666669352469 ]
    mass: 6.940000
    reduced_to: 1
  - symbol: Sn # 28
    coordinates: [  0.166666664281344,  0.166666664267497,  0.166666663994797 ]
    mass: 118.710000
    reduced_to: 28
  - symbol: Sn # 29
    coordinates: [  0.499999997614677,  0.166666664267497,  0.166666663994797 ]
    mass: 118.710000
    reduced_to: 28
  - symbol: Sn # 30
    coordinates: [  0.833333330948010,  0.166666664267497,  0.166666663994797 ]
    mass: 118.710000
    reduced_to: 28
  - symbol: Sn # 31
    coordinates: [  0.166666664281344,  0.499999997600831,  0.166666663994797 ]
    mass: 118.710000
    reduced_to: 28
  - symbol: Sn # 32
    coordinates: [  0.499999997614677,  0.499999997600831,  0.166666663994797 ]
    mass: 118.710000
    reduced_to: 28
  - symbol: Sn # 33
    coordinates: [  0.833333330948010,  0.499999997600831,  0.166666663994797 ]
    mass: 118.710000
    reduced_to: 28
  - symbol: Sn # 34
    coordinates: [  0.166666664281344,  0.833333330934164,  0.166666663994797 ]
    mass: 118.710000
    reduced_to: 28
  - symbol: Sn # 35
    coordinates: [  0.499999997614677,  0.833333330934164,  0.166666663994797 ]
    mass: 118.710000
    reduced_to: 28
  - symbol: Sn # 36
    coordinates: [  0.833333330948010,  0.833333330934164,  0.166666663994797 ]
    mass: 118.710000
    reduced_to: 28
  - symbol: Sn # 37
    coordinates: [  0.166666664281344,  0.166666664267497,  0.499999997328130 ]
    mass: 118.710000
    reduced_to: 28
  - symbol: Sn # 38
    coordinates: [  0.499999997614677,  0.166666664267497,  0.499999997328130 ]
    mass: 118.710000
    reduced_to: 28
  - symbol: Sn # 39
    coordinates: [  0.833333330948010,  0.166666664267497,  0.499999997328130 ]
    mass: 118.710000
    reduced_to: 28
  - symbol: Sn # 40
    coordinates: [  0.166666664281344,  0.499999997600831,  0.499999997328130 ]
    mass: 118.710000
    reduced_to: 28
  - symbol: Sn # 41
    coordinates: [  0.499999997614677,  0.499999997600831,  0.499999997328130 ]
    mass: 118.710000
    reduced_to: 28
  - symbol: Sn # 42
    coordinates: [  0.833333330948010,  0.499999997600831,  0.499999997328130 ]
    mass: 118.710000
    reduced_to: 28
  - symbol: Sn # 43
    coordinates: [  0.166666664281344,  0.833333330934164,  0.499999997328130 ]
    mass: 118.710000
    reduced_to: 28
  - symbol: Sn # 44
    coordinates: [  0.499999997614677,  0.833333330934164,  0.499999997328130 ]
    mass: 118.710000
    reduced_to: 28
  - symbol: Sn # 45
    coordinates: [  0.833333330948010,  0.833333330934164,  0.499999997328130 ]
    mass: 118.710000
    reduced_to: 28
  - symbol: Sn # 46
    coordinates: [  0.166666664281344,  0.166666664267497,  0.833333330661464 ]
    mass: 118.710000
    reduced_to: 28
  - symbol: Sn # 47
    coordinates: [  0.499999997614677,  0.166666664267497,  0.833333330661464 ]
    mass: 118.710000
    reduced_to: 28
  - symbol: Sn # 48
    coordinates: [  0.833333330948010,  0.166666664267497,  0.833333330661464 ]
    mass: 118.710000
    reduced_to: 28
  - symbol: Sn # 49
    coordinates: [  0.166666664281344,  0.499999997600831,  0.833333330661464 ]
    mass: 118.710000
    reduced_to: 28
  - symbol: Sn # 50
    coordinates: [  0.499999997614677,  0.499999997600831,  0.833333330661464 ]
    mass: 118.710000
    reduced_to: 28
  - symbol: Sn # 51
    coordinates: [  0.833333330948010,  0.499999997600831,  0.833333330661464 ]
    mass: 118.710000
    reduced_to: 28
  - symbol: Sn # 52
    coordinates: [  0.166666664281344,  0.833333330934164,  0.833333330661464 ]
    mass: 118.710000
    reduced_to: 28
  - symbol: Sn # 53
    coordinates: [  0.499999997614677,  0.833333330934164,  0.833333330661464 ]
    mass: 118.710000
    reduced_to: 28
  - symbol: Sn # 54
    coordinates: [  0.833333330948010,  0.833333330934164,  0.833333330661464 ]
    mass: 118.710000
    reduced_to: 28

displacements:
- atom:    1
  displacement:
    [   0.0100000000000000,  0.0000000000000000,  0.0000000000000000 ]
  forces:
  - [  -0.0212927851825953,  0.0000001990229066,  0.0000000681229722 ]
  - [   0.0007923804223537, -0.0000003903005563, -0.0000010760904843 ]
  - [   0.0007840050384402, -0.0000005075435183, -0.0000011092452041 ]
  - [  -0.0004692801157944, -0.0000020889565349, -0.0000004199409886 ]
  - [   0.0001808213128243,  0.0002600277366582, -0.0000005526235327 ]
  - [   0.0001795032585505, -0.0002568279742263, -0.0000004319417712 ]
  - [  -0.0004691402427852,  0.0000010197982192, -0.0000003224940883 ]
  - [   0.0001807570515666, -0.0002601492742542, -0.0000007214712241 ]
  - [   0.0001795418793336,  0.0002562225272413, -0.0000013744120224 ]
  - [  -0.0004696273244917, -0.0000005200309374, -0.0000034300610423 ]
  - [   0.0001809551031329, -0.0000003281204215,  0.0002592212404124 ]
  - [   0.0001794085837901, -0.0000005486747341, -0.0002571792574599 ]
  - [   0.0004174311761744, -0.0000023405300453, -0.0000032886164263 ]
  - [  -0.0006072619580664, -0.0005629443912767, -0.0005635117413476 ]
  - [  -0.0006089662201703,  0.0005656625726260,  0.0005652792751789 ]
  - [   0.0004178546951152,  0.0000015714322217, -0.0000036526180338 ]
  - [  -0.0006074741831981,  0.0005622091703117, -0.0005632058018818 ]
  - [  -0.0006091782706790, -0.0005665005883202,  0.0005655392888002 ]
  - [  -0.0004689134657383,  0.0000003086752258,  0.0000013536773622 ]
  - [   0.0001807650551200, -0.0000000792460924, -0.0002600726147648 ]
  - [   0.0001801215112209, -0.0000001379230525,  0.0002564270107541 ]
  - [   0.0004180903488304, -0.0000020060688257,  0.0000017670881789 ]
  - [  -0.0006073966505937, -0.0005625201156363,  0.0005618554423563 ]
  - [  -0.0006094186683185,  0.0005658698501065, -0.0005667658988386 ]
  - [   0.0004184172430541,  0.0000017026322894,  0.0000019788276404 ]
  - [  -0.0006071715615690,  0.0005620545125566,  0.0005619601579383 ]
  - [  -0.0006092380499467, -0.0005659480229951, -0.0005660901078954 ]
  - [   0.0030292528681457,  0.0034854942932725,  0.0034862204920501 ]
  - [  -0.0001639986876398,  0.0000019927974790,  0.0000016968697309 ]
  - [   0.0030035306699574, -0.0034314985387027, -0.0034312373027205 ]
  - [  -0.0000429642968811,  0.0000001393491402, -0.0000800936832093 ]
  - [   0.0000496350403409,  0.0000007831258699,  0.0000001054722816 ]
  - [  -0.0000390685745515,  0.0000007060589269,  0.0000798755208962 ]
  - [   0.0030291648581624, -0.0034855736885220,  0.0034864242188632 ]
  - [  -0.0001633948413655, -0.0000007150811143,  0.0000019460567273 ]
  - [   0.0030040270648897,  0.0034321495331824, -0.0034310172777623 ]
  - [  -0.0000424677273259, -0.0000807673786767,  0.0000011112133507 ]
  - [   0.0000492167891935, -0.0000003196182661,  0.0000011988449842 ]
  - [  -0.0000396591785830,  0.0000795336090960,  0.0000010330695659 ]
  - [  -0.0000813977312646,  0.0000010093790479,  0.0000014071993064 ]
  - [   0.0001637249079067,  0.0000006348709576,  0.0000009636860341 ]
  - [  -0.0000798194960225,  0.0000003292225301,  0.0000006546033546 ]
  - [  -0.0000419244170189,  0.0000805828021839,  0.0000017872371245 ]
  - [   0.0000492281396873,  0.0000001760490704,  0.0000006910995580 ]
  - [  -0.0000403298472520, -0.0000789672776591,  0.0000007627531886 ]
  - [   0.0030293408781290,  0.0034847278147936, -0.0034850137308240 ]
  - [  -0.0001626915181987,  0.0000013990793377, -0.0000011573720258 ]
  - [   0.0030033383518457, -0.0034322370775044,  0.0034321357961744 ]
  - [  -0.0000425720936619,  0.0000010214571375,  0.0000806270982139 ]
  - [   0.0000491983955726,  0.0000008334172890,  0.0000008720380720 ]
  - [  -0.0000398674164899,  0.0000009220093489, -0.0000788819161244 ]
  - [   0.0030292654410005, -0.0034857245627791, -0.0034854402765632 ]
  - [  -0.0001647502649575, -0.0000019538856577, -0.0000011213123798 ]
  - [   0.0030018098186702,  0.0034323143772781,  0.0034322184510529 ]
- atom:   28
  displacement:
    [   0.0100000000000000,  0.0000000000000000,  0.0000000000000000 ]
  forces:
  - [   0.0030095111578703,  0.0034190523438156,  0.0034192143939435 ]
  - [   0.0030187834054232, -0.0034986105747521, -0.0034992147702724 ]
  - [  -0.0001656394451857,  0.0000066465963755,  0.0000061419614212 ]
  - [   0.0030099910218269, -0.0034187920391560,  0.0034194756299257 ]
  - [   0.0030184483621269,  0.0034988031256944, -0.0034984974190593 ]
  - [  -0.0001658235560171, -0.0000066066859290,  0.0000064481591835 ]
  - [  -0.0000428322091466, -0.0000010710209608, -0.0000797431785031 ]
  - [  -0.0000425018370152, -0.0000006824266165,  0.0000797081593191 ]
  - [   0.0000476453860756, -0.0000010613293853, -0.0000020553870854 ]
  - [   0.0030095162801445,  0.0034189210273325, -0.0034198658540845 ]
  - [   0.0030187014490366, -0.0034984934609383,  0.0034984350204468 ]
  - [  -0.0001657784741838,  0.0000065019435169, -0.0000068623339757 ]
  - [   0.0030098683200777, -0.0034192139282823, -0.0034200432710350 ]
  - [   0.0030182772316039,  0.0034983425866812,  0.0034980247728527 ]
  - [  -0.0001656508538872, -0.0000066221691668, -0.0000068758963607 ]
  - [  -0.0000431005682913, -0.0000007752969395,  0.0000786038290244 ]
  - [  -0.0000424229074270, -0.0000009034411050, -0.0000803697330412 ]
  - [   0.0000476175337099, -0.0000012846721802,  0.0000009844079614 ]
  - [  -0.0000427085979027, -0.0000790885242168, -0.0000009927607607 ]
  - [  -0.0000425130128860,  0.0000802863069111, -0.0000005489473551 ]
  - [   0.0000480487942696, -0.0000008269726095, -0.0000009532705008 ]
  - [  -0.0000429084138887,  0.0000801794230938, -0.0000008694223652 ]
  - [  -0.0000427561171819, -0.0000796690583229, -0.0000010299263522 ]
  - [   0.0000475565029774,  0.0000011309166439, -0.0000013303069863 ]
  - [  -0.0000836459803395, -0.0000010807707440, -0.0000009725335985 ]
  - [  -0.0000809523917269, -0.0000011139782146, -0.0000011549564078 ]
  - [   0.0001623580174055, -0.0000005339097697, -0.0000007286434993 ]
  - [  -0.0317928045988083, -0.0000004349276423,  0.0000000838190317 ]
  - [   0.0041794618591666,  0.0000002444721758, -0.0000000705476850 ]
  - [   0.0039761122316122, -0.0000001206062734, -0.0000001844600774 ]
  - [   0.0007962694508024, -0.0000004091998562,  0.0000001962180249 ]
  - [  -0.0002416051283944,  0.0009028411586769, -0.0000000501167960 ]
  - [  -0.0002382834209129, -0.0009006240870804,  0.0000000903964974 ]
  - [   0.0007962558884174,  0.0000010781222954, -0.0000000859727152 ]
  - [  -0.0002416888019070, -0.0009012316004373,  0.0000001549487934 ]
  - [  -0.0002376630727667,  0.0009021469159052,  0.0000002905726433 ]
  - [   0.0007966606644914, -0.0000005152542144, -0.0000005781766959 ]
  - [  -0.0002417140349280, -0.0000003437744454,  0.0009032317902893 ]
  - [  -0.0002389595611021, -0.0000002585002221, -0.0008999528363347 ]
  - [   0.0001347372599412, -0.0000018770515453, -0.0000013834505808 ]
  - [  -0.0001823051716201, -0.0003141819033772, -0.0003140234039165 ]
  - [  -0.0001835080329329,  0.0003166857059114,  0.0003170974086970 ]
  - [   0.0001344428164884,  0.0000031498493627, -0.0000010809162632 ]
  - [  -0.0001821649493650,  0.0003150913980789, -0.0003142864443362 ]
  - [  -0.0001835791335907, -0.0003157031314913,  0.0003170700510964 ]
  - [   0.0007968745776452, -0.0000012727105059,  0.0000010262592696 ]
  - [  -0.0002409030566923, -0.0000004930188879, -0.0009014612878673 ]
  - [  -0.0002386616833974, -0.0000004886533134,  0.0009019444696605 ]
  - [   0.0001340587041341, -0.0000022987369448,  0.0000030719384085 ]
  - [  -0.0001821827609092, -0.0003141133347526,  0.0003159028710797 ]
  - [  -0.0001829757238738,  0.0003169118426740, -0.0003155381709803 ]
  - [   0.0001343541080132,  0.0000031820673030,  0.0000033192627598 ]
  - [  -0.0001828616950661,  0.0003149668336846,  0.0003159452753607 ]
  - [  -0.0001844897633418, -0.0003153599973302, -0.0003156969905831 ]

force_constants:
  format: "full"
  shape: [ 54, 54 ]
  elements:
  - # (1, 1)
    - [     2.129188370457850,     0.000000000417628,     0.000000000232695 ]
    - [     0.000000000417628,     2.129188371845168,    -0.000000000048138 ]
    - [     0.000000000232695,    -0.000000000048138,     2.129188371402269 ]
  - # (1, 2)
    - [    -0.078909418372207,    -0.000000000222945,    -0.000000000018921 ]
    - [    -0.000000001808353,     0.046833882420090,     0.000000000290902 ]
    - [    -0.000000001974462,     0.000000000332333,     0.046833881741340 ]
  - # (1, 3)
    - [    -0.078909420122613,    -0.000000000314924,    -0.000000000307506 ]
    - [    -0.000000000584367,     0.046833882300568,     0.000000000268298 ]
    - [    -0.000000000735125,     0.000000000092434,     0.046833881823970 ]
  - # (1, 4)
    - [     0.046833881037709,    -0.000000000154338,     0.000000000113657 ]
    - [     0.000000001208499,    -0.078909421443874,    -0.000000000604911 ]
    - [    -0.000000000105793,    -0.000000002259267,     0.046833882073778 ]
  - # (1, 5)
    - [    -0.018113569479889,    -0.025826595667961,    -0.000000000684830 ]
    - [    -0.025826595581331,    -0.018113568535940,    -0.000000000831638 ]
    - [    -0.000000001235277,    -0.000000000692633,    -0.041884983348858 ]
  - # (1, 6)
    - [    -0.018113569336537,     0.025826596484923,     0.000000000025248 ]
    - [     0.025826596010139,    -0.018113567823886,    -0.000000000809271 ]
    - [     0.000000000356279,    -0.000000000056516,    -0.041884983243943 ]
  - # (1, 7)
    - [     0.046833880800559,     0.000000000100906,     0.000000000444091 ]
    - [     0.000000001234832,    -0.078909421008475,    -0.000000000387534 ]
    - [    -0.000000000053514,    -0.000000001897175,     0.046833881861433 ]
  - # (1, 8)
    - [    -0.018113568616909,     0.025826595316267,    -0.000000000408243 ]
    - [     0.025826596019158,    -0.018113567967893,     0.000000000363724 ]
    - [    -0.000000000255524,     0.000000000680040,    -0.041884983281406 ]
  - # (1, 9)
    - [    -0.018113568500891,    -0.025826595041451,     0.000000000300590 ]
    - [    -0.025826596054545,    -0.018113569584855,     0.000000000233274 ]
    - [     0.000000000057047,     0.000000000297738,    -0.041884982815052 ]
  - # (1, 10)
    - [     0.046833880863235,     0.000000000203406,    -0.000000000351114 ]
    - [     0.000000000290036,     0.046833882450359,    -0.000000000492720 ]
    - [     0.000000000508800,     0.000000001434521,    -0.078909419808681 ]
  - # (1, 11)
    - [    -0.018113568067673,    -0.000000000134543,    -0.025826595105006 ]
    - [    -0.000000000364638,    -0.041884984279374,    -0.000000001135499 ]
    - [    -0.025826595816008,    -0.000000001192170,    -0.018113568785967 ]
  - # (1, 12)
    - [    -0.018113569014950,     0.000000000567914,     0.025826595822223 ]
    - [     0.000000000480411,    -0.041884982780330,    -0.000000000778036 ]
    - [     0.025826595527473,    -0.000000000997326,    -0.018113568090854 ]
  - # (1, 13)
    - [    -0.041884982617062,    -0.000000000590432,    -0.000000000480942 ]
    - [    -0.000000000582907,    -0.018113569157551,    -0.025826596233169 ]
    - [    -0.000000000838797,    -0.025826595700186,    -0.018113569374737 ]
  - # (1, 14)
    - [     0.060736170462671,     0.056424481501493,     0.056424482094432 ]
    - [     0.056424481501493,     0.060736172975151,     0.056424482376180 ]
    - [     0.056424482094432,     0.056424482376180,     0.060736174087998 ]
  - # (1, 15)
    - [     0.060736173716840,    -0.056424481182027,    -0.056424482241041 ]
    - [    -0.056424481451471,     0.060736171563241,     0.056424481423926 ]
    - [    -0.056424482668660,     0.056424481248062,     0.060736172915352 ]
  - # (1, 16)
    - [    -0.041884982799330,    -0.000000000017905,    -0.000000000382107 ]
    - [    -0.000000000917314,    -0.018113568934267,     0.025826596477836 ]
    - [    -0.000000001210020,     0.025826595920417,    -0.018113568195184 ]
  - # (1, 17)
    - [     0.060736170641225,    -0.056424479659180,     0.056424480351305 ]
    - [    -0.056424481672708,     0.060736172954962,    -0.056424481363826 ]
    - [     0.056424480924092,    -0.056424480788555,     0.060736171546683 ]
  - # (1, 18)
    - [     0.060736171666160,     0.056424482423883,    -0.056424480183197 ]
    - [     0.056424483901969,     0.060736175289958,    -0.056424482685250 ]
    - [    -0.056424480681623,    -0.056424481419354,     0.060736171417936 ]
  - # (1, 19)
    - [     0.046833881007197,     0.000000000380779,     0.000000001108921 ]
    - [     0.000000000131787,     0.046833882341379,     0.000000000831268 ]
    - [     0.000000000747942,     0.000000001170823,    -0.078909421037013 ]
  - # (1, 20)
    - [    -0.018113569116132,    -0.000000000573617,     0.025826595954808 ]
    - [    -0.000000000079013,    -0.041884982509993,    -0.000000000141995 ]
    - [     0.025826596357554,    -0.000000000896985,    -0.018113568842448 ]
  - # (1, 21)
    - [    -0.018113569182851,     0.000000000701337,    -0.025826595438639 ]
    - [     0.000000000301003,    -0.041884982706072,    -0.000000000083779 ]
    - [    -0.025826595700088,    -0.000000000048616,    -0.018113569063438 ]
  - # (1, 22)
    - [    -0.041884983163127,    -0.000000000479301,     0.000000000515000 ]
    - [    -0.000000000991592,    -0.018113567907984,     0.025826595392376 ]
    - [    -0.000000000151021,     0.025826595675217,    -0.018113568359847 ]
  - # (1, 23)
    - [     0.060736171413966,     0.056424481853506,    -0.056424479560704 ]
    - [     0.056424482763780,     0.060736174562022,    -0.056424481845073 ]
    - [    -0.056424481555595,    -0.056424482444245,     0.060736171980983 ]
  - # (1, 24)
    - [     0.060736172170599,    -0.056424481570281,     0.056424482150937 ]
    - [    -0.056424481970615,     0.060736173548395,    -0.056424481466485 ]
    - [     0.056424481889489,    -0.056424481431322,     0.060736172391754 ]
  - # (1, 25)
    - [    -0.041884982586072,     0.000000000257760,     0.000000000300330 ]
    - [    -0.000000000478659,    -0.018113568995907,    -0.025826596819111 ]
    - [     0.000000000422853,    -0.025826596342751,    -0.018113569514803 ]
  - # (1, 26)
    - [     0.060736172277812,    -0.056424479522122,    -0.056424480403098 ]
    - [    -0.056424482612391,     0.060736172371645,     0.056424482057506 ]
    - [    -0.056424483143754,     0.056424481810992,     0.060736173797885 ]
  - # (1, 27)
    - [     0.060736170079329,     0.056424481209688,     0.056424482300156 ]
    - [     0.056424481876578,     0.060736172618079,     0.056424482672682 ]
    - [     0.056424482025198,     0.056424482677861,     0.060736173660141 ]
  - # (1, 28)
    - [    -0.301517669377158,    -0.345882587678728,    -0.345882592125526 ]
    - [    -0.345882586743317,    -0.301517674446372,    -0.345882595524100 ]
    - [    -0.345882592389903,    -0.345882595648523,    -0.301517684647482 ]
  - # (1, 29)
    - [     0.016471589541227,     0.000000000715283,     0.000000000508395 ]
    - [     0.000000000012329,     0.004191227122700,     0.007981109906242 ]
    - [     0.000000000251089,     0.007981109905002,     0.004191226807280 ]
  - # (1, 30)
    - [    -0.301517683621946,     0.345882591911288,     0.345882597333872 ]
    - [     0.345882591207986,    -0.301517665729077,    -0.345882587792584 ]
    - [     0.345882597076283,    -0.345882587793803,    -0.301517677493859 ]
  - # (1, 31)
    - [     0.004191226401459,     0.000000000491632,     0.007981109944362 ]
    - [    -0.000000000320407,     0.016471590404405,    -0.000000000024826 ]
    - [     0.007981109871908,     0.000000000020041,     0.004191226747896 ]
  - # (1, 32)
    - [    -0.004851838031368,     0.000000000471625,     0.000000000332353 ]
    - [     0.000000000387456,    -0.004851838336430,     0.000000000127942 ]
    - [     0.000000000246259,     0.000000000188464,     0.008145384860265 ]
  - # (1, 33)
    - [     0.004191225987212,    -0.000000000042372,    -0.007981109009377 ]
    - [    -0.000000000100037,     0.016471590765563,    -0.000000000526907 ]
    - [    -0.007981109239654,    -0.000000000264351,     0.004191227423027 ]
  - # (1, 34)
    - [    -0.301517665817031,     0.345882582175847,    -0.345882579402573 ]
    - [     0.345882591112966,    -0.301517673278072,     0.345882589857073 ]
    - [    -0.345882586188462,     0.345882586712981,    -0.301517668874092 ]
  - # (1, 35)
    - [     0.016471588818591,    -0.000000000037790,     0.000000000509075 ]
    - [     0.000000000290763,     0.004191227780623,    -0.007981110018175 ]
    - [     0.000000000312275,    -0.007981109946451,     0.004191227254257 ]
  - # (1, 36)
    - [    -0.301517671964535,    -0.345882592381016,     0.345882584144431 ]
    - [    -0.345882602533446,    -0.301517691049889,     0.345882599341867 ]
    - [     0.345882586151457,     0.345882591476023,    -0.301517665142373 ]
  - # (1, 37)
    - [     0.004191226546557,     0.007981109835813,     0.000000000341310 ]
    - [     0.007981110292883,     0.004191227221189,     0.000000000231207 ]
    - [     0.000000000168518,     0.000000000138551,     0.016471590002981 ]
  - # (1, 38)
    - [    -0.004851838679911,     0.000000000320017,     0.000000000185064 ]
    - [     0.000000000138214,     0.008145385048896,     0.000000000298701 ]
    - [     0.000000000184969,     0.000000000515920,    -0.004851837691244 ]
  - # (1, 39)
    - [     0.004191226254057,    -0.007981108896502,     0.000000000191230 ]
    - [    -0.007981109267853,     0.004191227647591,    -0.000000000315660 ]
    - [    -0.000000000708117,    -0.000000000894603,     0.016471590149912 ]
  - # (1, 40)
    - [     0.008145384227488,     0.000000000150330,    -0.000000000143278 ]
    - [    -0.000000000009048,    -0.004851837996415,     0.000000000036614 ]
    - [    -0.000000000619941,     0.000000000376008,    -0.004851837618395 ]
  - # (1, 41)
    - [    -0.016304153190883,     0.000000000473020,     0.000000000206559 ]
    - [     0.000000000403915,    -0.016304151410248,     0.000000000199911 ]
    - [     0.000000000166087,     0.000000000114898,    -0.016304151956023 ]
  - # (1, 42)
    - [     0.008145384021681,     0.000000000092355,    -0.000000000236730 ]
    - [    -0.000000000035482,    -0.004851838493666,     0.000000000194402 ]
    - [    -0.000000000561706,     0.000000000187447,    -0.004851838132396 ]
  - # (1, 43)
    - [     0.004191226925671,    -0.007981109077509,     0.000000000321805 ]
    - [    -0.007981109762472,     0.004191226741327,     0.000000000084998 ]
    - [     0.000000000136093,    -0.000000000294718,     0.016471590077062 ]
  - # (1, 44)
    - [    -0.004851837865983,    -0.000000000128683,     0.000000000531690 ]
    - [    -0.000000000420494,     0.008145383927266,    -0.000000000189925 ]
    - [     0.000000000318566,    -0.000000000031070,    -0.004851838094042 ]
  - # (1, 45)
    - [     0.004191225440450,     0.007981110105260,    -0.000000000063052 ]
    - [     0.007981109829539,     0.004191227382839,    -0.000000000365910 ]
    - [    -0.000000000462564,    -0.000000000402911,     0.016471589526977 ]
  - # (1, 46)
    - [    -0.301517669132654,    -0.345882589374509,     0.345882581048307 ]
    - [    -0.345882596217184,    -0.301517685119006,     0.345882593362943 ]
    - [     0.345882591788979,     0.345882597152350,    -0.301517670683837 ]
  - # (1, 47)
    - [     0.016471589075771,     0.000000000636771,     0.000000000300616 ]
    - [     0.000000000345644,     0.004191227747128,    -0.007981109864833 ]
    - [    -0.000000000232503,    -0.007981110179442,     0.004191226989614 ]
  - # (1, 48)
    - [    -0.301517677112143,     0.345882593349746,    -0.345882591465646 ]
    - [     0.345882593167744,    -0.301517675683323,     0.345882591873446 ]
    - [    -0.345882591465460,     0.345882592090597,    -0.301517673570377 ]
  - # (1, 49)
    - [     0.004191227025391,     0.000000000403966,    -0.007981108871236 ]
    - [    -0.000000000230008,     0.016471590095161,     0.000000000006500 ]
    - [    -0.007981109139760,     0.000000000013750,     0.004191227095672 ]
  - # (1, 50)
    - [    -0.004851839329577,     0.000000000608584,    -0.000000000210029 ]
    - [     0.000000000332463,    -0.004851837585946,    -0.000000000536249 ]
    - [    -0.000000000736414,    -0.000000000664074,     0.008145383993283 ]
  - # (1, 51)