# Thermal properties / unit cell (natom)

unit:
  temperature:   K
  free_energy:   kJ/mol
  entropy:       J/K/mol
  heat_capacity: J/K/mol

natom: 20   
cutoff_frequency: 0.00000
num_modes: 202500
num_integrated_modes: 174994

zero_point_energy:      73.6687062

thermal_properties:
- temperature:         0.0000000
  free_energy:        73.6687062
  entropy:             0.0000000
  heat_capacity:       0.0000000
  energy:             73.6687062

- temperature:        10.0000000
  free_energy:        73.6624496
  entropy:             2.1241044
  heat_capacity:       4.9275117
  energy:             73.6836906

- temperature:        20.0000000
  free_energy:        73.6056099
  entropy:            10.3670677
  heat_capacity:      23.1396487
  energy:             73.8129513

- temperature:        30.0000000
  free_energy:        73.4347797
  entropy:            24.6163173
  heat_capacity:      49.4190788
  energy:             74.1732693

- temperature:        40.0000000
  free_energy:        73.1012627
  entropy:            42.5018012
  heat_capacity:      75.9229894
  energy:             74.8013347

- temperature:        50.0000000
  free_energy:        72.5790755
  entropy:            62.1202703
  heat_capacity:     100.5032815
  energy:             75.6850890

- temperature:        60.0000000
  free_energy:        71.8564075
  entropy:            82.4905959
  heat_capacity:     123.4183621
  energy:             76.8058432

- temperature:        70.0000000
  free_energy:        70.9282838
  entropy:           103.1619781
  heat_capacity:     145.1725242
  energy:             78.1496223

- temperature:        80.0000000
  free_energy:        69.7928992
  entropy:           123.9166592
  heat_capacity:     166.0001887
  energy:             79.7062320

- temperature:        90.0000000
  free_energy:        68.4501010
  entropy:           144.6272329
  heat_capacity:     185.9022851
  energy:             81.4665520

- temperature:       100.0000000
  free_energy:        66.9008145
  entropy:           165.2002917
  heat_capacity:     204.7739922
  energy:             83.4208437

- temperature:       110.0000000
  free_energy:        65.1468139
  entropy:           185.5580881
  heat_capacity:     222.4985210
  energy:             85.5582036

- temperature:       120.0000000
  free_energy:        63.1905926
  entropy:           205.6343123
  heat_capacity:     238.9934961
  energy:             87.8667101

- temperature:       130.0000000
  free_energy:        61.0352512
  entropy:           225.3738778
  heat_capacity:     254.2244908
  energy:             90.3338553

- temperature:       140.0000000
  free_energy:        58.6843841
  entropy:           244.7330835
  heat_capacity:     268.2014035
  energy:             92.9470158

- temperature:       150.0000000
  free_energy:        56.1419676
  entropy:           263.6791971
  heat_capacity:     280.9682124
  energy:             95.6938471

- temperature:       160.0000000
  free_energy:        53.4122540
  entropy:           282.1894616
  heat_capacity:     292.5917864
  energy:             98.5625678

- temperature:       170.0000000
  free_energy:        50.4996790
  entropy:           300.2497615
  heat_capacity:     303.1522301
  energy:            101.5421385

- temperature:       180.0000000
  free_energy:        47.4087823
  entropy:           317.8531823
  heat_capacity:     312.7354971
  energy:            104.6223551

- temperature:       190.0000000
  free_energy:        44.1441425
  entropy:           334.9986193
  heat_capacity:     321.4281864
  energy:            107.7938802

- temperature:       200.0000000
  free_energy:        40.7103254
  entropy:           351.6895242
  heat_capacity:     329.3141342
  energy:            111.0482303

- temperature:       210.0000000
  free_energy:        37.1118443
  entropy:           367.9328260
  heat_capacity:     336.4723619
  energy:            114.3777378

- temperature:       220.0000000
  free_energy:        33.3531294
  entropy:           383.7380308
  heat_capacity:     342.9759866
  energy:            117.7754962

- temperature:       230.0000000
  free_energy:        29.4385063
  entropy:           399.1164891
  heat_capacity:     348.8917874
  energy:            121.2352988

- temperature:       240.0000000
  free_energy:        25.3721802
  entropy:           414.0808103
  heat_capacity:     354.2801936
  energy:            124.7515747

- temperature:       250.0000000
  free_energy:        21.1582259
  entropy:           428.6444020
  heat_capacity:     359.1955332
  energy:            128.3193264

- temperature:       260.0000000
  free_energy:        16.8005818
  entropy:           442.8211127
  heat_capacity:     363.6864282
  energy:            131.9340711

- temperature:       270.0000000
  free_energy:        12.3030465
  entropy:           456.6249584
  heat_capacity:     367.7962605
  energy:            135.5917853

- temperature:       280.0000000
  free_energy:         7.6692789
  entropy:           470.0699159
  heat_capacity:     371.5636621
  energy:            139.2888553

- temperature:       290.0000000
  free_energy:         2.9027985
  entropy:           483.1697708
  heat_capacity:     375.0229970
  energy:            143.0220321

- temperature:       300.0000000
  free_energy:        -1.9930112
  entropy:           495.9380060
  heat_capacity:     378.2048194
  energy:            146.7883906

- temperature:       310.0000000
  free_energy:        -7.0148999
  entropy:           508.3877233
  heat_capacity:     381.1362975
  energy:            150.5852943

- temperature:       320.0000000
  free_energy:       -12.1597462
  entropy:           520.5315911
  heat_capacity:     383.8415992
  energy:            154.4103629

- temperature:       330.0000000
  free_energy:       -17.4245530
  entropy:           532.3818100
  heat_capacity:     386.3422398
  energy:            158.2614444

- temperature:       340.0000000
  free_energy:       -22.8064427
  entropy:           543.9500951
  heat_capacity:     388.6573912
  energy:            162.1365897

- temperature:       350.0000000
  free_energy:       -28.3026525
  entropy:           555.2476675
  heat_capacity:     390.8041568
  energy:            166.0340311

- temperature:       360.0000000
  free_energy:       -33.9105295
  entropy:           566.2852558
  heat_capacity:     392.7978143
  energy:            169.9521626

- temperature:       370.0000000
  free_energy:       -39.6275252
  entropy:           577.0731026
  heat_capacity:     394.6520292
  energy:            173.8895227

- temperature:       380.0000000
  free_energy:       -45.4511917
  entropy:           587.6209763
  heat_capacity:     396.3790426
  energy:            177.8447793

- temperature:       390.0000000
  free_energy:       -51.3791759
  entropy:           597.9381852
  heat_capacity:     397.9898361
  energy:            181.8167163

- temperature:       400.0000000
  free_energy:       -57.4092161
  entropy:           608.0335943
  heat_capacity:     399.4942763
  energy:            185.8042217

- temperature:       410.0000000
  free_energy:       -63.5391367
  entropy:           617.9156431
  heat_capacity:     400.9012421
  energy:            189.8062770

- temperature:       420.0000000
  free_energy:       -69.7668446
  entropy:           627.5923641
  heat_capacity:     402.2187357
  energy:            193.8219483

- temperature:       430.0000000
  free_energy:       -76.0903250
  entropy:           637.0714016
  heat_capacity:     403.4539805
  energy:            197.8503776

- temperature:       440.0000000
  free_energy:       -82.5076379
  entropy:           646.3600308
  heat_capacity:     404.6135071
  energy:            201.8907756

- temperature:       450.0000000
  free_energy:       -89.0169141
  entropy:           655.4651761
  heat_capacity:     405.7032285
  energy:            205.9424152

- temperature:       460.0000000
  free_energy:       -95.6163519
  entropy:           664.3934289
  heat_capacity:     406.7285071
  energy:            210.0046254

- temperature:       470.0000000
  free_energy:      -102.3042140
  entropy:           673.1510654
  heat_capacity:     407.6942129
  energy:            214.0767868

- temperature:       480.0000000
  free_energy:      -109.0788244
  entropy:           681.7440632
  heat_capacity:     408.6047754
  energy:            218.1583259

- temperature:       490.0000000
  free_energy:      -115.9385654
  entropy:           690.1781172
  heat_capacity:     409.4642293
  energy:            222.2487120

- temperature:       500.0000000
  free_energy:      -122.8818750
  entropy:           698.4586550
  heat_capacity:     410.2762548
  energy:            226.3474525

- temperature:       510.0000000
  free_energy:      -129.9072441
  entropy:           706.5908516
  heat_capacity:     411.0442138
  energy:            230.4540902

- temperature:       520.0000000
  free_energy:      -137.0132141
  entropy:           714.5796427
  heat_capacity:     411.7711811
  energy:            234.5682001

- temperature:       530.0000000
  free_energy:      -144.1983747
  entropy:           722.4297382
  heat_capacity:     412.4599730
  energy:            238.6893866

- temperature:       540.0000000
  free_energy:      -151.4613615
  entropy:           730.1456343
  heat_capacity:     413.1131726
  energy:            242.8172810

- temperature:       550.0000000
  free_energy:      -158.8008544
  entropy:           737.7316249
  heat_capacity:     413.7331516
  energy:            246.9515393

- temperature:       560.0000000
  free_energy:      -166.2155747
  entropy:           745.1918130
  heat_capacity:     414.3220909
  energy:            251.0918406

- temperature:       570.0000000
  free_energy:      -173.7042844
  entropy:           752.5301206
  heat_capacity:     414.8819981
  energy:            255.2378844

- temperature:       580.0000000
  free_energy:      -181.2657834
  entropy:           759.7502988
  heat_capacity:     415.4147236
  energy:            259.3893899

- temperature:       590.0000000
  free_energy:      -188.8989086
  entropy:           766.8559365
  heat_capacity:     415.9219747
  energy:            263.5460940

- temperature:       600.0000000
  free_energy:      -196.6025318
  entropy:           773.8504693
  heat_capacity:     416.4053288
  energy:            267.7077498

- temperature:       610.0000000
  free_energy:      -204.3755586
  entropy:           780.7371874
  heat_capacity:     416.8662447
  energy:            271.8741258

- temperature:       620.0000000
  free_energy:      -212.2169267
  entropy:           787.5192436
  heat_capacity:     417.3060729
  energy:            276.0450044

- temperature:       630.0000000
  free_energy:      -220.1256047
  entropy:           794.1996600
  heat_capacity:     417.7260652
  energy:            280.2201811

- temperature:       640.0000000
  free_energy:      -228.1005907
  entropy:           800.7813347
  heat_capacity:     418.1273830
  energy:            284.3994635

- temperature:       650.0000000
  free_energy:      -236.1409115
  entropy:           807.2670487
  heat_capacity:     418.5111049
  energy:            288.5826701

- temperature:       660.0000000
  free_energy:      -244.2456208
  entropy:           813.6594712
  heat_capacity:     418.8782337
  energy:            292.7696303

- temperature:       670.0000000
  free_energy:      -252.4137985
  entropy:           819.9611658
  heat_capacity:     419.2297024
  energy:            296.9601826

- temperature:       680.0000000
  free_energy:      -260.6445499
  entropy:           826.1745954
  heat_capacity:     419.5663802
  energy:            301.1541750

- temperature:       690.0000000
  free_energy:      -268.9370041
  entropy:           832.3021271
  heat_capacity:     419.8890774
  energy:            305.3514636

- temperature:       700.0000000
  free_energy:      -277.2903137
  entropy:           838.3460374
  heat_capacity:     420.1985500
  energy:            309.5519125

- temperature:       710.0000000
  free_energy:      -285.7036534
  entropy:           844.3085159
  heat_capacity:     420.4955043
  energy:            313.7553929

- temperature:       720.0000000
  free_energy:      -294.1762196
  entropy:           850.1916703
  heat_capacity:     420.7806003
  energy:            317.9617830

- temperature:       730.0000000
  free_energy:      -302.7072292
  entropy:           855.9975296
  heat_capacity:     421.0544556
  energy:            322.1709674

- temperature:       740.0000000
  free_energy:      -311.2959191
  entropy:           861.7280482
  heat_capacity:     421.3176484
  energy:            326.3828366

- temperature:       750.0000000
  free_energy:      -319.9415453
  entropy:           867.3851093
  heat_capacity:     421.5707206
  energy:            330.5972867

- temperature:       760.0000000
  free_energy:      -328.6433824
  entropy:           872.9705282
  heat_capacity:     421.8141803
  energy:            334.8142190

- temperature:       770.0000000
  free_energy:      -337.4007229
  entropy:           878.4860555
  heat_capacity:     422.0485045
  energy:            339.0335398

- temperature:       780.0000000
  free_energy:      -346.2128762
  entropy:           883.9333799
  heat_capacity:     422.2741409
  energy:            343.2551601

- temperature:       790.0000000
  free_energy:      -355.0791686
  entropy:           889.3141312
  heat_capacity:     422.4915108
  energy:            347.4789951

- temperature:       800.0000000
  free_energy:      -363.9989422
  entropy:           894.6298829
  heat_capacity:     422.7010100
  energy:            351.7049641

- temperature:       810.0000000
  free_energy:      -372.9715546
  entropy:           899.8821543
  heat_capacity:     422.9030114
  energy:            355.9329903

- temperature:       820.0000000
  free_energy:      -381.9963786
  entropy:           905.0724135
  heat_capacity:     423.0978661
  energy:            360.1630005

- temperature:       830.0000000
  free_energy:      -391.0728009
  entropy:           910.2020793
  heat_capacity:     423.2859049
  energy:            364.3949249

- temperature:       840.0000000
  free_energy:      -400.2002228
  entropy:           915.2725234
  heat_capacity:     423.4674400
  energy:            368.6286969

- temperature:       850.0000000
  free_energy:      -409.3780584
  entropy:           920.2850723
  heat_capacity:     423.6427661
  energy:            372.8642530

- temperature:       860.0000000
  free_energy:      -418.6057355
  entropy:           925.2410093
  heat_capacity:     423.8121612
  energy:            377.1015325

- temperature:       870.0000000
  free_energy:      -427.8826941
  entropy:           930.1415763
  heat_capacity:     423.9758883
  energy:            381.3404773

- temperature:       880.0000000
  free_energy:      -437.2083865
  entropy:           934.9879757
  heat_capacity:     424.1341960
  energy:            385.5810322

- temperature:       890.0000000
  free_energy:      -446.5822769
  entropy:           939.7813718
  heat_capacity:     424.2873194
  energy:            389.8231440

- temperature:       900.0000000
  free_energy:      -456.0038410
  entropy:           944.5228922
  heat_capacity:     424.4354811
  energy:            394.0667620

- temperature:       910.0000000
  free_energy:      -465.4725655
  entropy:           949.2136299
  heat_capacity:     424.5788921
  energy:            398.3118378

- temperature:       920.0000000
  free_energy:      -474.9879478
  entropy:           953.8546441
  heat_capacity:     424.7177522
  energy:            402.5583247

- temperature:       930.0000000
  free_energy:      -484.5494960
  entropy:           958.4469616
  heat_capacity:     424.8522509
  energy:            406.8061783

- temperature:       940.0000000
  free_energy:      -494.1567281
  entropy:           962.9915786
  heat_capacity:     424.9825680
  energy:            411.0553558

- temperature:       950.0000000
  free_energy:      -503.8091718
  entropy:           967.4894612
  heat_capacity:     425.1088741
  energy:            415.3058163

- temperature:       960.0000000
  free_energy:      -513.5063646
  entropy:           971.9415470
  heat_capacity:     425.2313315
  energy:            419.5575204

- temperature:       970.0000000
  free_energy:      -523.2478531
  entropy:           976.3487461
  heat_capacity:     425.3500940
  energy:            423.8104306

- temperature:       980.0000000
  free_energy:      -533.0331929
  entropy:           980.7119422
  heat_capacity:     425.4653083
  energy:            428.0645105

- temperature:       990.0000000
  free_energy:      -542.8619482
  entropy:           985.0319935
  heat_capacity:     425.5771134
  energy:            432.3197254

- temperature:      1000.0000000
  free_energy:      -552.7336917
  entropy:           989.3097336
  heat_capacity:     425.6856422
  energy:            436.5760418
