# Tetrahedron method
       -2.0276692746        0.0000000000
       -1.9599498673        0.0000000000
       -1.8922304600        0.0000000000
       -1.8245110527        0.0000000000
       -1.7567916455        0.0000000000
       -1.6890722382        0.0000000000
       -1.6213528309        0.0000000000
       -1.5536334236        0.0000000000
       -1.4859140164        0.0000000000
       -1.4181946091        0.0000000000
       -1.3504752018        0.0000000000
       -1.2827557945        0.0000000000
       -1.2150363873        0.0000000000
       -1.1473169800        0.0000000000
       -1.0795975727        0.0000000000
       -1.0118781654        0.0000000000
       -0.9441587582        0.0000000000
       -0.8764393509        0.0972023105
       -0.8087199436        0.2437790945
       -0.7410005363        0.3447644723
       -0.6732811291        0.8892325032
       -0.6055617218        1.2192407103
       -0.5378423145        1.4077480417
       -0.4701229072        1.0455961680
       -0.4024035000        0.6835902474
       -0.3346840927        0.4870658776
       -0.2669646854        0.3635926063
       -0.1992452781        0.3194244426
       -0.1315258709        0.2907724191
       -0.0638064636        0.2761220315
        0.0039129437        0.2705176151
        0.0716323510        0.2695300752
        0.1393517582        0.2753000204
        0.2070711655        0.2932619236
        0.2747905728        0.3477771724
        0.3425099801        0.4133663906
        0.4102293874        0.4915797190
        0.4779487946        0.5906670756
        0.5456682019        0.6968936311
        0.6133876092        0.7986395031
        0.6811070165        0.9554461190
        0.7488264237        1.2178219258
        0.8165458310        1.6014284511
        0.8842652383        1.8590130740
        0.9519846456        2.5237645908
        1.0197040528        3.3791296536
        1.0874234601        3.2907313791
        1.1551428674        2.8233423168
        1.2228622747        5.1205774108
        1.2905816819        7.8240222727
        1.3583010892        4.3913705601
        1.4260204965        3.7813287676
        1.4937399038        4.6043778254
        1.5614593110        5.7457291020
        1.6291787183        7.9180229307
        1.6968981256        8.8937830514
        1.7646175329        6.2228393063
        1.8323369401       10.7678451448
        1.9000563474        9.4666993773
        1.9677757547        6.4269511190
        2.0354951620       10.4724453440
        2.1032145692        9.7450178141
        2.1709339765        8.8939520031
        2.2386533838        7.3973377581
        2.3063727911        6.4342261859
        2.3740921983        6.5918923353
        2.4418116056        6.2022761718
        2.5095310129        3.7151546578
        2.5772504202        5.7097930818
        2.6449698274        5.3576114277
        2.7126892347        3.3732658993
        2.7804086420        2.3621098552
        2.8481280493        1.2120102337
        2.9158474565        1.5524611173
        2.9835668638        4.3004501825
        3.0512862711        4.9334545943
        3.1190056784        3.3442686494
        3.1867250856        2.9144126819
        3.2544444929        6.9617379837
        3.3221639002        4.4802860930
        3.3898833075        3.6078488566
        3.4576027147        2.5781154210
        3.5253221220        1.8640622603
        3.5930415293        0.3423858397
        3.6607609366        0.0000000000
        3.7284803438        0.0000000000
        3.7961997511        0.0000000000
        3.8639191584        0.0000000000
        3.9316385657        0.0000000000
        3.9993579729        0.0000000000
        4.0670773802        0.0000000000
        4.1347967875        0.0000000000
        4.2025161948        0.0000000000
        4.2702356020        0.0000000000
        4.3379550093        0.0000000000
        4.4056744166        0.0000000000
        4.4733938239        0.0000000000
        4.5411132311        0.0000000000
        4.6088326384        0.0000000000
        4.6765520457        0.0000000000
        4.7442714530        0.0000000000
        4.8119908602        0.0000000000
        4.8797102675        0.0000000000
        4.9474296748        0.0000000000
        5.0151490821        0.0000000000
        5.0828684893        0.0000000000
        5.1505878966        0.2760126314
        5.2183073039        0.9264830130
        5.2860267112        2.9697178948
        5.3537461185        6.4231750036
        5.4214655257        3.9227419510
        5.4891849330        3.2092745399
        5.5569043403        2.5402287514
        5.6246237476        2.1666392216
        5.6923431548        3.0526499747
        5.7600625621        2.6751313920
        5.8277819694        2.8054249924
        5.8955013767        3.4832039557
        5.9632207839        3.4501160692
        6.0309401912        3.0586058922
        6.0986595985        3.2065630708
        6.1663790058        4.1102611304
        6.2340984130        4.1541456861
        6.3018178203        4.3451894764
        6.3695372276        4.6469900533
        6.4372566349        5.4676701841
        6.5049760421        4.2679461436
        6.5726954494        3.5577801821
        6.6404148567        4.1219773268
        6.7081342640        3.6533610062
        6.7758536712        4.2764851589
        6.8435730785        4.1848342040
        6.9112924858        4.1566829288
        6.9790118931        2.6175239859
        7.0467313003        2.3448968458
        7.1144507076        2.4009485683
        7.1821701149        1.1641422389
        7.2498895222        3.1592192399
        7.3176089294        5.8688966261
        7.3853283367        6.7610946347
        7.4530477440        4.0584450350
        7.5207671513        3.5350126207
        7.5884865585        5.6954926875
        7.6562059658        5.9190954080
        7.7239253731        4.7866911984
        7.7916447804        6.7259622383
        7.8593641876        4.4571214424
        7.9270835949        2.9152725950
        7.9948030022        3.6498565692
        8.0625224095        3.8169277030
        8.1302418167        2.6593700067
        8.1979612240        3.3983659172
        8.2656806313        2.9906954886
        8.3334000386        4.1470702265
        8.4011194458        3.4729046584
        8.4688388531        2.3308171204
        8.5365582604        3.2811282004
        8.6042776677        2.4795686551
        8.6719970749        2.5307503323
        8.7397164822        0.7393597894
        8.8074358895        2.3489176332
        8.8751552968        7.2164656072
        8.9428747040       12.5317823687
        9.0105941113       10.6874942039
        9.0783135186        2.2466766371
        9.1460329259        3.7959755368
        9.2137523331        3.5284514669
        9.2814717404        8.5894309575
        9.3491911477       10.3039500820
        9.4169105550        2.8193673331
        9.4846299622        3.9564226835
        9.5523493695        4.6432210496
        9.6200687768        5.6656093849
        9.6877881841        5.0236392870
        9.7555075913        4.0964884659
        9.8232269986        4.4726057017
        9.8909464059        6.4622193861
        9.9586658132        4.8002916438
       10.0263852205        3.7840991826
       10.0941046277        3.5528616605
       10.1618240350        3.8852803420
       10.2295434423        3.1969867894
       10.2972628496        1.0205934100
       10.3649822568        0.4168212320
       10.4327016641        0.0000000000
       10.5004210714        0.0000000000
       10.5681404787        0.0000000000
       10.6358598859        0.0000000000
       10.7035792932        0.0000000000
       10.7712987005        0.0000000000
       10.8390181078        0.0000000000
       10.9067375150        0.0000000000
       10.9744569223        0.0000000000
       11.0421763296        0.0000000000
       11.1098957369        0.0000000000
       11.1776151441        0.0000000000
       11.2453345514        0.0000000000
       11.3130539587        0.0000000000
       11.3807733660        0.0000000000
       11.4484927732        0.0000000000
       11.5162121805        0.0000000000
