# Thermal properties / unit cell (natom)

unit:
  temperature:   K
  free_energy:   kJ/mol
  entropy:       J/K/mol
  heat_capacity: J/K/mol

natom: 20   
cutoff_frequency: 0.00000
num_modes: 136620
num_integrated_modes: 136619

zero_point_energy:      51.8957353

thermal_properties:
- temperature:         0.0000000
  free_energy:        51.8957353
  entropy:             0.0000000
  heat_capacity:       0.0000000
  energy:             51.8957353

- temperature:        10.0000000
  free_energy:        51.8868196
  entropy:             3.5733969
  heat_capacity:      11.6971835
  energy:             51.9225536

- temperature:        20.0000000
  free_energy:        51.7496267
  entropy:            27.8199683
  heat_capacity:      69.9698264
  energy:             52.3060261

- temperature:        30.0000000
  free_energy:        51.2758175
  entropy:            68.4343771
  heat_capacity:     132.3062697
  energy:             53.3288488

- temperature:        40.0000000
  free_energy:        50.3677603
  entropy:           113.2892924
  heat_capacity:     179.4939746
  energy:             54.8993320

- temperature:        50.0000000
  free_energy:        49.0127615
  entropy:           157.4408584
  heat_capacity:     216.4225588
  energy:             56.8848044

- temperature:        60.0000000
  free_energy:        47.2251445
  entropy:           199.7599666
  heat_capacity:     248.1252293
  energy:             59.2107425

- temperature:        70.0000000
  free_energy:        45.0239078
  entropy:           240.1787209
  heat_capacity:     276.5150200
  energy:             61.8364182

- temperature:        80.0000000
  free_energy:        42.4275642
  entropy:           278.7982976
  heat_capacity:     302.0112769
  energy:             64.7314280

- temperature:        90.0000000
  free_energy:        39.4536457
  entropy:           315.7059758
  heat_capacity:     324.6717512
  energy:             67.8671835

- temperature:       100.0000000
  free_energy:        36.1189306
  entropy:           350.9677404
  heat_capacity:     344.5882633
  energy:             71.2157046

- temperature:       110.0000000
  free_energy:        32.4395760
  entropy:           384.6441053
  heat_capacity:     361.9506166
  energy:             74.7504276

- temperature:       120.0000000
  free_energy:        28.4311193
  entropy:           416.7994296
  heat_capacity:     377.0138562
  energy:             78.4470509

- temperature:       130.0000000
  free_energy:        24.1084232
  entropy:           447.5041966
  heat_capacity:     390.0560216
  energy:             82.2839688

- temperature:       140.0000000
  free_energy:        19.4856198
  entropy:           476.8337309
  heat_capacity:     401.3486374
  energy:             86.2423421

- temperature:       150.0000000
  free_energy:        14.5760735
  entropy:           504.8657973
  heat_capacity:     411.1407352
  energy:             90.3059431

- temperature:       160.0000000
  free_energy:         9.3923689
  entropy:           531.6782679
  heat_capacity:     419.6523214
  energy:             94.4608918

- temperature:       170.0000000
  free_energy:         3.9463193
  entropy:           557.3472841
  heat_capacity:     427.0733919
  energy:             98.6953576

- temperature:       180.0000000
  free_energy:        -1.7510094
  entropy:           581.9459795
  heat_capacity:     433.5657958
  energy:            102.9992669

- temperature:       190.0000000
  free_energy:        -7.6892641
  entropy:           605.5436866
  heat_capacity:     439.2663205
  energy:            107.3640363

- temperature:       200.0000000
  free_energy:       -13.8587641
  entropy:           628.2055178
  heat_capacity:     444.2901008
  energy:            111.7823395

- temperature:       210.0000000
  free_energy:       -20.2504579
  entropy:           649.9922125
  heat_capacity:     448.7338968
  energy:            116.2479068

- temperature:       220.0000000
  free_energy:       -26.8558797
  entropy:           670.9601652
  heat_capacity:     452.6790413
  energy:            120.7553567

- temperature:       230.0000000
  free_energy:       -33.6671064
  entropy:           691.1615706
  heat_capacity:     456.1939921
  energy:            125.3000548

- temperature:       240.0000000
  free_energy:       -40.6767170
  entropy:           710.6446376
  heat_capacity:     459.3364942
  energy:            129.8779960

- temperature:       250.0000000
  free_energy:       -47.8777534
  entropy:           729.4538407
  heat_capacity:     462.1553868
  energy:            134.4857068

- temperature:       260.0000000
  free_energy:       -55.2636847
  entropy:           747.6301866
  heat_capacity:     464.6921022
  energy:            139.1201638

- temperature:       270.0000000
  free_energy:       -62.8283739
  entropy:           765.2114826
  heat_capacity:     466.9819030
  energy:            143.7787264

- temperature:       280.0000000
  free_energy:       -70.5660473
  entropy:           782.2325966
  heat_capacity:     469.0549023
  energy:            148.4590797

- temperature:       290.0000000
  free_energy:       -78.4712661
  entropy:           798.7257043
  heat_capacity:     470.9369033
  energy:            153.1591881

- temperature:       300.0000000
  free_energy:       -86.5389007
  entropy:           814.7205203
  heat_capacity:     472.6500922
  energy:            157.8772554

- temperature:       310.0000000
  free_energy:       -94.7641073
  entropy:           830.2445119
  heat_capacity:     474.2136102
  energy:            162.6116914

- temperature:       320.0000000
  free_energy:      -103.1423065
  entropy:           845.3230957
  heat_capacity:     475.6440265
  energy:            167.3610842

- temperature:       330.0000000
  free_energy:      -111.6691632
  entropy:           859.9798171
  heat_capacity:     476.9557310
  energy:            172.1241764

- temperature:       340.0000000
  free_energy:      -120.3405696
  entropy:           874.2365136
  heat_capacity:     478.1612610
  energy:            176.8998451

- temperature:       350.0000000
  free_energy:      -129.1526278
  entropy:           888.1134635
  heat_capacity:     479.2715735
  energy:            181.6870844

- temperature:       360.0000000
  free_energy:      -138.1016360
  entropy:           901.6295202
  heat_capacity:     480.2962737
  energy:            186.4849913

- temperature:       370.0000000
  free_energy:      -147.1840739
  entropy:           914.8022341
  heat_capacity:     481.2438059
  energy:            191.2927527

- temperature:       380.0000000
  free_energy:      -156.3965909
  entropy:           927.6479630
  heat_capacity:     482.1216151
  energy:            196.1096351

- temperature:       390.0000000
  free_energy:      -165.7359942
  entropy:           940.1819714
  heat_capacity:     482.9362833
  energy:            200.9349747

- temperature:       400.0000000
  free_energy:      -175.1992389
  entropy:           952.4185216
  heat_capacity:     483.6936448
  energy:            205.7681698

- temperature:       410.0000000
  free_energy:      -184.7834177
  entropy:           964.3709550
  heat_capacity:     484.3988841
  energy:            210.6086739

- temperature:       420.0000000
  free_energy:      -194.4857526
  entropy:           976.0517662
  heat_capacity:     485.0566200
  energy:            215.4559892

- temperature:       430.0000000
  free_energy:      -204.3035867
  entropy:           987.4726708
  heat_capacity:     485.6709770
  energy:            220.3096617

- temperature:       440.0000000
  free_energy:      -214.2343764
  entropy:           998.6446657
  heat_capacity:     486.2456465
  energy:            225.1692765

- temperature:       450.0000000
  free_energy:      -224.2756848
  entropy:          1009.5780851
  heat_capacity:     486.7839398
  energy:            230.0344534

- temperature:       460.0000000
  free_energy:      -234.4251753
  entropy:          1020.2826507
  heat_capacity:     487.2888335
  energy:            234.9048440

- temperature:       470.0000000
  free_energy:      -244.6806056
  entropy:          1030.7675177
  heat_capacity:     487.7630088
  energy:            239.7801277

- temperature:       480.0000000
  free_energy:      -255.0398222
  entropy:          1041.0413167
  heat_capacity:     488.2088858
  energy:            244.6600098

- temperature:       490.0000000
  free_energy:      -265.5007556
  entropy:          1051.1121918
  heat_capacity:     488.6286528
  energy:            249.5442184

- temperature:       500.0000000
  free_energy:      -276.0614153
  entropy:          1060.9878356
  heat_capacity:     489.0242927
  energy:            254.4325025

- temperature:       510.0000000
  free_energy:      -286.7198858
  entropy:          1070.6755209
  heat_capacity:     489.3976051
  energy:            259.3246299

- temperature:       520.0000000
  free_energy:      -297.4743222
  entropy:          1080.1821304
  heat_capacity:     489.7502262
  energy:            264.2203856

- temperature:       530.0000000
  free_energy:      -308.3229466
  entropy:          1089.5141830
  heat_capacity:     490.0836463
  energy:            269.1195704

- temperature:       540.0000000
  free_energy:      -319.2640446
  entropy:          1098.6778588
  heat_capacity:     490.3992246
  energy:            274.0219991

- temperature:       550.0000000
  free_energy:      -330.2959621
  entropy:          1107.6790212
  heat_capacity:     490.6982033
  energy:            278.9274996

- temperature:       560.0000000
  free_energy:      -341.4171019
  entropy:          1116.5232385
  heat_capacity:     490.9817188
  energy:            283.8359116

- temperature:       570.0000000
  free_energy:      -352.6259214
  entropy:          1125.2158022
  heat_capacity:     491.2508128
  energy:            288.7470859

- temperature:       580.0000000
  free_energy:      -363.9209293
  entropy:          1133.7617453
  heat_capacity:     491.5064410
  energy:            293.6608830

- temperature:       590.0000000
  free_energy:      -375.3006835
  entropy:          1142.1658581
  heat_capacity:     491.7494819
  energy:            298.5771728

- temperature:       600.0000000
  free_energy:      -386.7637889
  entropy:          1150.4327038
  heat_capacity:     491.9807439
  energy:            303.4958334

- temperature:       610.0000000
  free_energy:      -398.3088946
  entropy:          1158.5666319
  heat_capacity:     492.2009718
  energy:            308.4167509

- temperature:       620.0000000
  free_energy:      -409.9346923
  entropy:          1166.5717914
  heat_capacity:     492.4108529
  energy:            313.3398184

- temperature:       630.0000000
  free_energy:      -421.6399144
  entropy:          1174.4521428
  heat_capacity:     492.6110220
  energy:            318.2649356

- temperature:       640.0000000
  free_energy:      -433.4233318
  entropy:          1182.2114690
  heat_capacity:     492.8020663
  energy:            323.1920084

- temperature:       650.0000000
  free_energy:      -445.2837524
  entropy:          1189.8533857
  heat_capacity:     492.9845293
  energy:            328.1209483

- temperature:       660.0000000
  free_energy:      -457.2200197
  entropy:          1197.3813511
  heat_capacity:     493.1589150
  energy:            333.0516721

- temperature:       670.0000000
  free_energy:      -469.2310107
  entropy:          1204.7986745
  heat_capacity:     493.3256911
  energy:            337.9841012

- temperature:       680.0000000
  free_energy:      -481.3156349
  entropy:          1212.1085248
  heat_capacity:     493.4852921
  energy:            342.9181620

- temperature:       690.0000000
  free_energy:      -493.4728330
  entropy:          1219.3139385
  heat_capacity:     493.6381219
  energy:            347.8537845

- temperature:       700.0000000
  free_energy:      -505.7015753
  entropy:          1226.4178262
  heat_capacity:     493.7845566
  energy:            352.7909031

- temperature:       710.0000000
  free_energy:      -518.0008605
  entropy:          1233.4229802
  heat_capacity:     493.9249467
  energy:            357.7294555

- temperature:       720.0000000
  free_energy:      -530.3697147
  entropy:          1240.3320801
  heat_capacity:     494.0596190
  energy:            362.6693830

- temperature:       730.0000000
  free_energy:      -542.8071905
  entropy:          1247.1476991
  heat_capacity:     494.1888787
  energy:            367.6106298

- temperature:       740.0000000
  free_energy:      -555.3123654
  entropy:          1253.8723092
  heat_capacity:     494.3130110
  energy:            372.5531434

- temperature:       750.0000000
  free_energy:      -567.8843412
  entropy:          1260.5082868
  heat_capacity:     494.4322825
  energy:            377.4968739

- temperature:       760.0000000
  free_energy:      -580.5222433
  entropy:          1267.0579171
  heat_capacity:     494.5469428
  energy:            382.4417737

- temperature:       770.0000000
  free_energy:      -593.2252191
  entropy:          1273.5233990
  heat_capacity:     494.6572259
  energy:            387.3877981

- temperature:       780.0000000
  free_energy:      -605.9924378
  entropy:          1279.9068490
  heat_capacity:     494.7633508
  energy:            392.3349044

- temperature:       790.0000000
  free_energy:      -618.8230894
  entropy:          1286.2103056
  heat_capacity:     494.8655235
  energy:            397.2830520

- temperature:       800.0000000
  free_energy:      -631.7163838
  entropy:          1292.4357327
  heat_capacity:     494.9639372
  energy:            402.2322023

- temperature:       810.0000000
  free_energy:      -644.6715503
  entropy:          1298.5850236
  heat_capacity:     495.0587734
  energy:            407.1823188

- temperature:       820.0000000
  free_energy:      -657.6878366
  entropy:          1304.6600037
  heat_capacity:     495.1502029
  energy:            412.1333664

- temperature:       830.0000000
  free_energy:      -670.7645086
  entropy:          1310.6624344
  heat_capacity:     495.2383865
  energy:            417.0853120

- temperature:       840.0000000
  free_energy:      -683.9008492
  entropy:          1316.5940155
  heat_capacity:     495.3234756
  energy:            422.0381239

- temperature:       850.0000000
  free_energy:      -697.0961582
  entropy:          1322.4563881
  heat_capacity:     495.4056128
  energy:            426.9917717

- temperature:       860.0000000
  free_energy:      -710.3497515
  entropy:          1328.2511375
  heat_capacity:     495.4849329
  energy:            431.9462267

- temperature:       870.0000000
  free_energy:      -723.6609606
  entropy:          1333.9797954
  heat_capacity:     495.5615629
  energy:            436.9014614

- temperature:       880.0000000
  free_energy:      -737.0291321
  entropy:          1339.6438426
  heat_capacity:     495.6356226
  energy:            441.8574494

- temperature:       890.0000000
  free_energy:      -750.4536269
  entropy:          1345.2447107
  heat_capacity:     495.7072255
  energy:            446.8141657

- temperature:       900.0000000
  free_energy:      -763.9338203
  entropy:          1350.7837849
  heat_capacity:     495.7764788
  energy:            451.7715861

- temperature:       910.0000000
  free_energy:      -777.4691011
  entropy:          1356.2624053
  heat_capacity:     495.8434839
  energy:            456.7296877

- temperature:       920.0000000
  free_energy:      -791.0588712
  entropy:          1361.6818694
  heat_capacity:     495.9083369
  energy:            461.6884486

- temperature:       930.0000000
  free_energy:      -804.7025455
  entropy:          1367.0434334
  heat_capacity:     495.9711287
  energy:            466.6478476

- temperature:       940.0000000
  free_energy:      -818.3995509
  entropy:          1372.3483144
  heat_capacity:     496.0319456
  energy:            471.6078646

- temperature:       950.0000000
  free_energy:      -832.1493267
  entropy:          1377.5976915
  heat_capacity:     496.0908693
  energy:            476.5684802

- temperature:       960.0000000
  free_energy:      -845.9513236
  entropy:          1382.7927078
  heat_capacity:     496.1479775
  energy:            481.5296759

- temperature:       970.0000000
  free_energy:      -859.8050034
  entropy:          1387.9344715
  heat_capacity:     496.2033437
  energy:            486.4914340

- temperature:       980.0000000
  free_energy:      -873.7098391
  entropy:          1393.0240575
  heat_capacity:     496.2570381
  energy:            491.4537372

- temperature:       990.0000000
  free_energy:      -887.6653141
  entropy:          1398.0625085
  heat_capacity:     496.3091270
  energy:            496.4165694

- temperature:      1000.0000000
  free_energy:      -901.6709222
  entropy:          1403.0508368
  heat_capacity:     496.3596737
  energy:            501.3799146
