# Thermal properties / unit cell (natom)

unit:
  temperature:   K
  free_energy:   kJ/mol
  entropy:       J/K/mol
  heat_capacity: J/K/mol

natom: 12   
cutoff_frequency: 0.00000
num_modes: 139392
num_integrated_modes: 115949

zero_point_energy:      26.1908422

thermal_properties:
- temperature:         0.0000000
  free_energy:        26.1908422
  entropy:             0.0000000
  heat_capacity:       0.0000000
  energy:             26.1908422

- temperature:        10.0000000
  free_energy:        26.1792317
  entropy:             3.7394617
  heat_capacity:       8.3877029
  energy:             26.2166263

- temperature:        20.0000000
  free_energy:        26.0858390
  entropy:            16.1629995
  heat_capacity:      31.4654735
  energy:             26.4090990

- temperature:        30.0000000
  free_energy:        25.8380677
  entropy:            34.0256042
  heat_capacity:      58.6842722
  energy:             26.8588358

- temperature:        40.0000000
  free_energy:        25.3964176
  entropy:            54.5883351
  heat_capacity:      85.1048159
  energy:             27.5799510

- temperature:        50.0000000
  free_energy:        24.7431624
  entropy:            76.1150676
  heat_capacity:     108.0047272
  energy:             28.5489158

- temperature:        60.0000000
  free_energy:        23.8745373
  entropy:            97.5331919
  heat_capacity:     126.8837727
  energy:             29.7265288

- temperature:        70.0000000
  free_energy:        22.7947296
  entropy:           118.2924021
  heat_capacity:     142.3473425
  energy:             31.0751978

- temperature:        80.0000000
  free_energy:        21.5116707
  entropy:           138.1623832
  heat_capacity:     155.1604983
  energy:             32.5646613

- temperature:        90.0000000
  free_energy:        20.0346733
  entropy:           157.0773204
  heat_capacity:     165.9349430
  energy:             34.1716322

- temperature:       100.0000000
  free_energy:        18.3732766
  entropy:           175.0475587
  heat_capacity:     175.1068435
  energy:             35.8780324

- temperature:       110.0000000
  free_energy:        16.5367301
  entropy:           192.1157660
  heat_capacity:     182.9846584
  energy:             37.6694644

- temperature:       120.0000000
  free_energy:        14.5337863
  entropy:           208.3365353
  heat_capacity:     189.7942353
  energy:             39.5341705

- temperature:       130.0000000
  free_energy:        12.3726329
  entropy:           223.7671983
  heat_capacity:     195.7085492
  energy:             41.4623687

- temperature:       140.0000000
  free_energy:        10.0608889
  entropy:           238.4637861
  heat_capacity:     200.8652721
  energy:             43.4458189

- temperature:       150.0000000
  free_energy:         7.6056269
  entropy:           252.4793275
  heat_capacity:     205.3769510
  energy:             45.4775261

- temperature:       160.0000000
  free_energy:         5.0134074
  entropy:           265.8632115
  heat_capacity:     209.3371245
  energy:             47.5515213

- temperature:       170.0000000
  free_energy:         2.2903158
  entropy:           278.6610433
  heat_capacity:     212.8242731
  energy:             49.6626932

- temperature:       180.0000000
  free_energy:        -0.5580000
  entropy:           290.9147321
  heat_capacity:     215.9045963
  energy:             51.8066518

- temperature:       190.0000000
  free_energy:        -3.5262934
  entropy:           302.6626847
  heat_capacity:     218.6341119
  energy:             53.9796167

- temperature:       200.0000000
  free_energy:        -6.6096854
  entropy:           313.9400460
  heat_capacity:     221.0603264
  energy:             56.1783238

- temperature:       210.0000000
  free_energy:        -9.8036331
  entropy:           324.7789549
  heat_capacity:     223.2236022
  energy:             58.3999474

- temperature:       220.0000000
  free_energy:       -13.1039012
  entropy:           335.2087986
  heat_capacity:     225.1582955
  energy:             60.6420345

- temperature:       230.0000000
  free_energy:       -16.5065354
  entropy:           345.2564562
  heat_capacity:     226.8937068
  energy:             62.9024495

- temperature:       240.0000000
  free_energy:       -20.0078386
  entropy:           354.9465284
  heat_capacity:     228.4548789
  energy:             65.1793282

- temperature:       250.0000000
  free_energy:       -23.6043493
  entropy:           364.3015499
  heat_capacity:     229.8632642
  energy:             67.4710381

- temperature:       260.0000000
  free_energy:       -27.2928219
  entropy:           373.3421836
  heat_capacity:     231.1372849
  energy:             69.7761459

- temperature:       270.0000000
  free_energy:       -31.0702085
  entropy:           382.0873982
  heat_capacity:     232.2928019
  energy:             72.0933891

- temperature:       280.0000000
  free_energy:       -34.9336434
  entropy:           390.5546290
  heat_capacity:     233.3435067
  energy:             74.4216528

- temperature:       290.0000000
  free_energy:       -38.8804281
  entropy:           398.7599226
  heat_capacity:     234.3012502
  energy:             76.7599495

- temperature:       300.0000000
  free_energy:       -42.9080181
  entropy:           406.7180681
  heat_capacity:     235.1763184
  energy:             79.1074023

- temperature:       310.0000000
  free_energy:       -47.0140112
  entropy:           414.4427143
  heat_capacity:     235.9776633
  energy:             81.4632302

- temperature:       320.0000000
  free_energy:       -51.1961362
  entropy:           421.9464756
  heat_capacity:     236.7130971
  energy:             83.8267360

- temperature:       330.0000000
  free_energy:       -55.4522434
  entropy:           429.2410267
  heat_capacity:     237.3894560
  energy:             86.1972954

- temperature:       340.0000000
  free_energy:       -59.7802955
  entropy:           436.3371876
  heat_capacity:     238.0127377
  energy:             88.5743483

- temperature:       350.0000000
  free_energy:       -64.1783594
  entropy:           443.2450008
  heat_capacity:     238.5882183
  energy:             90.9573909

- temperature:       360.0000000
  free_energy:       -68.6445989
  entropy:           449.9737994
  heat_capacity:     239.1205508
  energy:             93.3459689

- temperature:       370.0000000
  free_energy:       -73.1772677
  entropy:           456.5322690
  heat_capacity:     239.6138492
  energy:             95.7396718

- temperature:       380.0000000
  free_energy:       -77.7747036
  entropy:           462.9285039
  heat_capacity:     240.0717595
  energy:             98.1381279

- temperature:       390.0000000
  free_energy:       -82.4353223
  entropy:           469.1700567
  heat_capacity:     240.4975209
  energy:            100.5409999

- temperature:       400.0000000
  free_energy:       -87.1576127
  entropy:           475.2639838
  heat_capacity:     240.8940177
  energy:            102.9479808

- temperature:       410.0000000
  free_energy:       -91.9401319
  entropy:           481.2168858
  heat_capacity:     241.2638242
  energy:            105.3587913

- temperature:       420.0000000
  free_energy:       -96.7815010
  entropy:           487.0349452
  heat_capacity:     241.6092427
  energy:            107.7731761

- temperature:       430.0000000
  free_energy:      -101.6804007
  entropy:           492.7239592
  heat_capacity:     241.9323368
  energy:            110.1909017

- temperature:       440.0000000
  free_energy:      -106.6355682
  entropy:           498.2893698
  heat_capacity:     242.2349600
  energy:            112.6117546

- temperature:       450.0000000
  free_energy:      -111.6457932
  entropy:           503.7362921
  heat_capacity:     242.5187803
  energy:            115.0355383

- temperature:       460.0000000
  free_energy:      -116.7099151
  entropy:           509.0695384
  heat_capacity:     242.7853019
  energy:            117.4620725

- temperature:       470.0000000
  free_energy:      -121.8268201
  entropy:           514.2936412
  heat_capacity:     243.0358836
  energy:            119.8911912

- temperature:       480.0000000
  free_energy:      -126.9954384
  entropy:           519.4128741
  heat_capacity:     243.2717551
  energy:            122.3227412

- temperature:       490.0000000
  free_energy:      -132.2147415
  entropy:           524.4312705
  heat_capacity:     243.4940314
  energy:            124.7565810

- temperature:       500.0000000
  free_energy:      -137.4837404
  entropy:           529.3526406
  heat_capacity:     243.7037251
  energy:            127.1925799

- temperature:       510.0000000
  free_energy:      -142.8014830
  entropy:           534.1805874
  heat_capacity:     243.9017574
  energy:            129.6306166

- temperature:       520.0000000
  free_energy:      -148.1670521
  entropy:           538.9185213
  heat_capacity:     244.0889678
  energy:            132.0705790

- temperature:       530.0000000
  free_energy:      -153.5795641
  entropy:           543.5696728
  heat_capacity:     244.2661222
  energy:            134.5123625

- temperature:       540.0000000
  free_energy:      -159.0381665
  entropy:           548.1371051
  heat_capacity:     244.4339208
  energy:            136.9558702

- temperature:       550.0000000
  free_energy:      -164.5420369
  entropy:           552.6237250
  heat_capacity:     244.5930045
  energy:            139.4010119

- temperature:       560.0000000
  free_energy:      -170.0903809
  entropy:           557.0322931
  heat_capacity:     244.7439608
  energy:            141.8477032

- temperature:       570.0000000
  free_energy:      -175.6824313
  entropy:           561.3654335
  heat_capacity:     244.8873290
  energy:            144.2958658

- temperature:       580.0000000
  free_energy:      -181.3174465
  entropy:           565.6256425
  heat_capacity:     245.0236047
  energy:            146.7454262

- temperature:       590.0000000
  free_energy:      -186.9947090
  entropy:           569.8152962
  heat_capacity:     245.1532441
  energy:            149.1963158

- temperature:       600.0000000
  free_energy:      -192.7135248
  entropy:           573.9366585
  heat_capacity:     245.2766678
  energy:            151.6484703

- temperature:       610.0000000
  free_energy:      -198.4732217
  entropy:           577.9918876
  heat_capacity:     245.3942636
  energy:            154.1018297

- temperature:       620.0000000
  free_energy:      -204.2731489
  entropy:           581.9830425
  heat_capacity:     245.5063899
  energy:            156.5563374

- temperature:       630.0000000
  free_energy:      -210.1126756
  entropy:           585.9120888
  heat_capacity:     245.6133781
  energy:            159.0119404

- temperature:       640.0000000
  free_energy:      -215.9911900
  entropy:           589.7809044
  heat_capacity:     245.7155352
  energy:            161.4685888

- temperature:       650.0000000
  free_energy:      -221.9080989
  entropy:           593.5912843
  heat_capacity:     245.8131457
  energy:            163.9262359

- temperature:       660.0000000
  free_energy:      -227.8628266
  entropy:           597.3449456
  heat_capacity:     245.9064736
  energy:            166.3848375

- temperature:       670.0000000
  free_energy:      -233.8548142
  entropy:           601.0435316
  heat_capacity:     245.9957641
  energy:            168.8443519

- temperature:       680.0000000
  free_energy:      -239.8835189
  entropy:           604.6886161
  heat_capacity:     246.0812453
  energy:            171.3047401

- temperature:       690.0000000
  free_energy:      -245.9484132
  entropy:           608.2817074
  heat_capacity:     246.1631295
  energy:            173.7659649

- temperature:       700.0000000
  free_energy:      -252.0489846
  entropy:           611.8242513
  heat_capacity:     246.2416144
  energy:            176.2279913

- temperature:       710.0000000
  free_energy:      -258.1847344
  entropy:           615.3176350
  heat_capacity:     246.3168846
  energy:            178.6907864

- temperature:       720.0000000
  free_energy:      -264.3551778
  entropy:           618.7631899
  heat_capacity:     246.3891123
  energy:            181.1543189

- temperature:       730.0000000
  free_energy:      -270.5598430
  entropy:           622.1621946
  heat_capacity:     246.4584582
  energy:            183.6185591

- temperature:       740.0000000
  free_energy:      -276.7982707
  entropy:           625.5158778
  heat_capacity:     246.5250729
  energy:            186.0834789

- temperature:       750.0000000
  free_energy:      -283.0700135
  entropy:           628.8254205
  heat_capacity:     246.5890972
  energy:            188.5490519

- temperature:       760.0000000
  free_energy:      -289.3746357
  entropy:           632.0919584
  heat_capacity:     246.6506630
  energy:            191.0152527

- temperature:       770.0000000
  free_energy:      -295.7117129
  entropy:           635.3165848
  heat_capacity:     246.7098938
  energy:            193.4820574

- temperature:       780.0000000
  free_energy:      -302.0808312
  entropy:           638.5003518
  heat_capacity:     246.7669059
  energy:            195.9494432

- temperature:       790.0000000
  free_energy:      -308.4815871
  entropy:           641.6442729
  heat_capacity:     246.8218079
  energy:            198.4173885

- temperature:       800.0000000
  free_energy:      -314.9135871
  entropy:           644.7493247
  heat_capacity:     246.8747024
  energy:            200.8858726

- temperature:       810.0000000
  free_energy:      -321.3764472
  entropy:           647.8164486
  heat_capacity:     246.9256856
  energy:            203.3548761

- temperature:       820.0000000
  free_energy:      -327.8697927
  entropy:           650.8465524
  heat_capacity:     246.9748480
  energy:            205.8243803

- temperature:       830.0000000
  free_energy:      -334.3932578
  entropy:           653.8405122
  heat_capacity:     247.0222750
  energy:            208.2943673

- temperature:       840.0000000
  free_energy:      -340.9464853
  entropy:           656.7991733
  heat_capacity:     247.0680470
  energy:            210.7648203

- temperature:       850.0000000
  free_energy:      -347.5291263
  entropy:           659.7233521
  heat_capacity:     247.1122397
  energy:            213.2357230

- temperature:       860.0000000
  free_energy:      -354.1408400
  entropy:           662.6138373
  heat_capacity:     247.1549247
  energy:            215.7070600

- temperature:       870.0000000
  free_energy:      -360.7812933
  entropy:           665.4713908
  heat_capacity:     247.1961695
  energy:            218.1788167

- temperature:       880.0000000
  free_energy:      -367.4501605
  entropy:           668.2967493
  heat_capacity:     247.2360379
  energy:            220.6509788

- temperature:       890.0000000
  free_energy:      -374.1471233
  entropy:           671.0906251
  heat_capacity:     247.2745903
  energy:            223.1235331

- temperature:       900.0000000
  free_energy:      -380.8718704
  entropy:           673.8537076
  heat_capacity:     247.3118838
  energy:            225.5964664

- temperature:       910.0000000
  free_energy:      -387.6240971
  entropy:           676.5866635
  heat_capacity:     247.3479724
  energy:            228.0697667

- temperature:       920.0000000
  free_energy:      -394.4035054
  entropy:           679.2901385
  heat_capacity:     247.3829072
  energy:            230.5434221

- temperature:       930.0000000
  free_energy:      -401.2098037
  entropy:           681.9647579
  heat_capacity:     247.4167367
  energy:            233.0174212

- temperature:       940.0000000
  free_energy:      -408.0427064
  entropy:           684.6111273
  heat_capacity:     247.4495070
  energy:            235.4917533

- temperature:       950.0000000
  free_energy:      -414.9019340
  entropy:           687.2298336
  heat_capacity:     247.4812616
  energy:            237.9664079

- temperature:       960.0000000
  free_energy:      -421.7872127
  entropy:           689.8214458
  heat_capacity:     247.5120420
  energy:            240.4413752

- temperature:       970.0000000
  free_energy:      -428.6982744
  entropy:           692.3865155
  heat_capacity:     247.5418874
  energy:            242.9166456

- temperature:       980.0000000
  free_energy:      -435.6348564
  entropy:           694.9255779
  heat_capacity:     247.5708353
  energy:            245.3922100

- temperature:       990.0000000
  free_energy:      -442.5967010
  entropy:           697.4391520
  heat_capacity:     247.5989211
  energy:            247.8680595

- temperature:      1000.0000000
  free_energy:      -449.5835561
  entropy:           699.9277418
  heat_capacity:     247.6261787
  energy:            250.3441857
