# Thermal properties / unit cell (natom)

unit:
  temperature:   K
  free_energy:   kJ/mol
  entropy:       J/K/mol
  heat_capacity: J/K/mol

natom: 5    
cutoff_frequency: 0.00000
num_modes: 643125
num_integrated_modes: 643124

zero_point_energy:      10.8797518

thermal_properties:
- temperature:         0.0000000
  free_energy:        10.8797518
  entropy:             0.0000000
  heat_capacity:       0.0000000
  energy:             10.8797518

- temperature:        10.0000000
  free_energy:        10.8614587
  entropy:             6.9140659
  heat_capacity:      16.9089666
  energy:             10.9305993

- temperature:        20.0000000
  free_energy:        10.6974442
  entropy:            26.2486857
  heat_capacity:      39.2065296
  energy:             11.2224179

- temperature:        30.0000000
  free_energy:        10.3403539
  entropy:            44.7937795
  heat_capacity:      52.1883401
  energy:             11.6841673

- temperature:        40.0000000
  free_energy:         9.8090660
  entropy:            61.1220213
  heat_capacity:      61.3896152
  energy:             12.2539469

- temperature:        50.0000000
  free_energy:         9.1238816
  entropy:            75.6561505
  heat_capacity:      68.9606824
  energy:             12.9066892

- temperature:        60.0000000
  free_energy:         8.3004907
  entropy:            88.8207406
  heat_capacity:      75.4935509
  energy:             13.6297351

- temperature:        70.0000000
  free_energy:         7.3510947
  entropy:           100.8939200
  heat_capacity:      81.1581494
  energy:             14.4136691

- temperature:        80.0000000
  free_energy:         6.2856327
  entropy:           112.0593062
  heat_capacity:      86.0663175
  energy:             15.2503772

- temperature:        90.0000000
  free_energy:         5.1124940
  entropy:           122.4480898
  heat_capacity:      90.3220487
  energy:             16.1328220

- temperature:       100.0000000
  free_energy:         3.8389239
  entropy:           132.1603003
  heat_capacity:      94.0180592
  energy:             17.0549539

- temperature:       110.0000000
  free_energy:         2.4712763
  entropy:           141.2755186
  heat_capacity:      97.2337223
  energy:             18.0115834

- temperature:       120.0000000
  free_energy:         1.0151852
  entropy:           149.8588993
  heat_capacity:     100.0364647
  energy:             18.9982531

- temperature:       130.0000000
  free_energy:        -0.5243114
  entropy:           157.9649263
  heat_capacity:     102.4838481
  energy:             20.0111291

- temperature:       140.0000000
  free_energy:        -2.1426773
  entropy:           165.6399157
  heat_capacity:     104.6252667
  energy:             21.0469109

- temperature:       150.0000000
  free_energy:        -3.8358064
  entropy:           172.9237543
  heat_capacity:     106.5031927
  energy:             22.1027567

- temperature:       160.0000000
  free_energy:        -5.5999647
  entropy:           179.8511461
  heat_capacity:     108.1541246
  energy:             23.1762187

- temperature:       170.0000000
  free_energy:        -7.4317430
  entropy:           186.4525323
  heat_capacity:     109.6093704
  energy:             24.2651874

- temperature:       180.0000000
  free_energy:        -9.3280186
  entropy:           192.7547898
  heat_capacity:     110.8957318
  energy:             25.3678436

- temperature:       190.0000000
  free_energy:       -11.2859216
  entropy:           198.7817759
  heat_capacity:     112.0361158
  energy:             26.4826159

- temperature:       200.0000000
  free_energy:       -13.3028077
  entropy:           204.5547625
  heat_capacity:     113.0500820
  energy:             27.6081448

- temperature:       210.0000000
  free_energy:       -15.3762338
  entropy:           210.0927898
  heat_capacity:     113.9543278
  energy:             28.7432520

- temperature:       220.0000000
  free_energy:       -17.5039374
  entropy:           215.4129585
  heat_capacity:     114.7631134
  energy:             29.8869134

- temperature:       230.0000000
  free_energy:       -19.6838183
  entropy:           220.5306750
  heat_capacity:     115.4886293
  energy:             31.0382369

- temperature:       240.0000000
  free_energy:       -21.9139226
  entropy:           225.4598585
  heat_capacity:     116.1413118
  energy:             32.1964434

- temperature:       250.0000000
  free_energy:       -24.1924292
  entropy:           230.2131183
  heat_capacity:     116.7301123
  energy:             33.3608504

- temperature:       260.0000000
  free_energy:       -26.5176369
  entropy:           234.8019052
  heat_capacity:     117.2627241
  energy:             34.5308585

- temperature:       270.0000000
  free_energy:       -28.8879539
  entropy:           239.2366432
  heat_capacity:     117.7457751
  energy:             35.7059397

- temperature:       280.0000000
  free_energy:       -31.3018880
  entropy:           243.5268428
  heat_capacity:     118.1849892
  energy:             36.8856279

- temperature:       290.0000000
  free_energy:       -33.7580380
  entropy:           247.6812001
  heat_capacity:     118.5853224
  energy:             38.0695100

- temperature:       300.0000000
  free_energy:       -36.2550859
  entropy:           251.7076835
  heat_capacity:     118.9510770
  energy:             39.2572192

- temperature:       310.0000000
  free_energy:       -38.7917899
  entropy:           255.6136088
  heat_capacity:     119.2859981
  energy:             40.4484288

- temperature:       320.0000000
  free_energy:       -41.3669787
  entropy:           259.4057062
  heat_capacity:     119.5933541
  energy:             41.6428473

- temperature:       330.0000000
  free_energy:       -43.9795453
  entropy:           263.0901786
  heat_capacity:     119.8760051
  energy:             42.8402136

- temperature:       340.0000000
  free_energy:       -46.6284426
  entropy:           266.6727532
  heat_capacity:     120.1364607
  energy:             44.0402935

- temperature:       350.0000000
  free_energy:       -49.3126784
  entropy:           270.1587276
  heat_capacity:     120.3769282
  energy:             45.2428762

- temperature:       360.0000000
  free_energy:       -52.0313116
  entropy:           273.5530097
  heat_capacity:     120.5993545
  energy:             46.4477719

- temperature:       370.0000000
  free_energy:       -54.7834482
  entropy:           276.8601544
  heat_capacity:     120.8054607
  energy:             47.6548089

- temperature:       380.0000000
  free_energy:       -57.5682384
  entropy:           280.0843952
  heat_capacity:     120.9967721
  energy:             48.8638318

- temperature:       390.0000000
  free_energy:       -60.3848729
  entropy:           283.2296731
  heat_capacity:     121.1746437
  energy:             50.0746996

- temperature:       400.0000000
  free_energy:       -63.2325809
  entropy:           286.2996620
  heat_capacity:     121.3402820
  energy:             51.2872839

- temperature:       410.0000000
  free_energy:       -66.1106267
  entropy:           289.2977920
  heat_capacity:     121.4947638
  energy:             52.5014680

- temperature:       420.0000000
  free_energy:       -69.0183079
  entropy:           292.2272694
  heat_capacity:     121.6390521
  energy:             53.7171452

- temperature:       430.0000000
  free_energy:       -71.9549532
  entropy:           295.0910959
  heat_capacity:     121.7740098
  energy:             54.9342180

- temperature:       440.0000000
  free_energy:       -74.9199204
  entropy:           297.8920848
  heat_capacity:     121.9004122
  energy:             56.1525969

- temperature:       450.0000000
  free_energy:       -77.9125943
  entropy:           300.6328763
  heat_capacity:     122.0189567
  energy:             57.3722000

- temperature:       460.0000000
  free_energy:       -80.9323855
  entropy:           303.3159511
  heat_capacity:     122.1302722
  energy:             58.5929520

- temperature:       470.0000000
  free_energy:       -83.9787287
  entropy:           305.9436426
  heat_capacity:     122.2349270
  energy:             59.8147833

- temperature:       480.0000000
  free_energy:       -87.0510811
  entropy:           308.5181482
  heat_capacity:     122.3334352
  energy:             61.0376300

- temperature:       490.0000000
  free_energy:       -90.1489213
  entropy:           311.0415396
  heat_capacity:     122.4262628
  energy:             62.2614331

- temperature:       500.0000000
  free_energy:       -93.2717481
  entropy:           313.5157716
  heat_capacity:     122.5138333
  energy:             63.4861378

- temperature:       510.0000000
  free_energy:       -96.4190791
  entropy:           315.9426913
  heat_capacity:     122.5965318
  energy:             64.7116935

- temperature:       520.0000000
  free_energy:       -99.5904500
  entropy:           318.3240449
  heat_capacity:     122.6747090
  energy:             65.9380533

- temperature:       530.0000000
  free_energy:      -102.7854136
  entropy:           320.6614854
  heat_capacity:     122.7486853
  energy:             67.1651737

- temperature:       540.0000000
  free_energy:      -106.0035386
  entropy:           322.9565789
  heat_capacity:     122.8187531
  energy:             68.3930140

- temperature:       550.0000000
  free_energy:      -109.2444090
  entropy:           325.2108101
  heat_capacity:     122.8851804
  energy:             69.6215366

- temperature:       560.0000000
  free_energy:      -112.5076233
  entropy:           327.4255885
  heat_capacity:     122.9482128
  energy:             70.8507063

- temperature:       570.0000000
  free_energy:      -115.7927937
  entropy:           329.6022526
  heat_capacity:     123.0080755
  energy:             72.0804903

- temperature:       580.0000000
  free_energy:      -119.0995455
  entropy:           331.7420749
  heat_capacity:     123.0649757
  energy:             73.3108579

- temperature:       590.0000000
  free_energy:      -122.4275164
  entropy:           333.8462661
  heat_capacity:     123.1191041
  energy:             74.5417806

- temperature:       600.0000000
  free_energy:      -125.7763559
  entropy:           335.9159788
  heat_capacity:     123.1706363
  energy:             75.7732314

- temperature:       610.0000000
  free_energy:      -129.1457248
  entropy:           337.9523114
  heat_capacity:     123.2197344
  energy:             77.0051852

- temperature:       620.0000000
  free_energy:      -132.5352944
  entropy:           339.9563110
  heat_capacity:     123.2665482
  energy:             78.2376184

- temperature:       630.0000000
  free_energy:      -135.9447465
  entropy:           341.9289770
  heat_capacity:     123.3112161
  energy:             79.4705090

- temperature:       640.0000000
  free_energy:      -139.3737727
  entropy:           343.8712636
  heat_capacity:     123.3538664
  energy:             80.7038360

- temperature:       650.0000000
  free_energy:      -142.8220736
  entropy:           345.7840824
  heat_capacity:     123.3946179
  energy:             81.9375800

- temperature:       660.0000000
  free_energy:      -146.2893590
  entropy:           347.6683052
  heat_capacity:     123.4335810
  energy:             83.1717224

- temperature:       670.0000000
  free_energy:      -149.7753471
  entropy:           349.5247659
  heat_capacity:     123.4708580
  energy:             84.4062460

- temperature:       680.0000000
  free_energy:      -153.2797644
  entropy:           351.3542629
  heat_capacity:     123.5065443
  energy:             85.6411343

- temperature:       690.0000000
  free_energy:      -156.8023451
  entropy:           353.1575608
  heat_capacity:     123.5407285
  energy:             86.8763719

- temperature:       700.0000000
  free_energy:      -160.3428308
  entropy:           354.9353927
  heat_capacity:     123.5734933
  energy:             88.1119441

- temperature:       710.0000000
  free_energy:      -163.9009704
  entropy:           356.6884615
  heat_capacity:     123.6049157
  energy:             89.3478373

- temperature:       720.0000000
  free_energy:      -167.4765197
  entropy:           358.4174416
  heat_capacity:     123.6350676
  energy:             90.5840382

- temperature:       730.0000000
  free_energy:      -171.0692411
  entropy:           360.1229804
  heat_capacity:     123.6640162
  energy:             91.8205346

- temperature:       740.0000000
  free_energy:      -174.6789033
  entropy:           361.8057000
  heat_capacity:     123.6918244
  energy:             93.0573147

- temperature:       750.0000000
  free_energy:      -178.3052810
  entropy:           363.4661980
  heat_capacity:     123.7185510
  energy:             94.2943675

- temperature:       760.0000000
  free_energy:      -181.9481551
  entropy:           365.1050492
  heat_capacity:     123.7442511
  energy:             95.5316823

- temperature:       770.0000000
  free_energy:      -185.6073117
  entropy:           366.7228064
  heat_capacity:     123.7689762
  energy:             96.7692493

- temperature:       780.0000000
  free_energy:      -189.2825427
  entropy:           368.3200018
  heat_capacity:     123.7927750
  energy:             98.0070588

- temperature:       790.0000000
  free_energy:      -192.9736449
  entropy:           369.8971478
  heat_capacity:     123.8156928
  energy:             99.2451018

- temperature:       800.0000000
  free_energy:      -196.6804204
  entropy:           371.4547378
  heat_capacity:     123.8377724
  energy:            100.4833698

- temperature:       810.0000000
  free_energy:      -200.4026761
  entropy:           372.9932478
  heat_capacity:     123.8590540
  energy:            101.7218546

- temperature:       820.0000000
  free_energy:      -204.1402233
  entropy:           374.5131362
  heat_capacity:     123.8795754
  energy:            102.9605484

- temperature:       830.0000000
  free_energy:      -207.8928782
  entropy:           376.0148457
  heat_capacity:     123.8993723
  energy:            104.1994437

- temperature:       840.0000000
  free_energy:      -211.6604611
  entropy:           377.4988031
  heat_capacity:     123.9184782
  energy:            105.4385335

- temperature:       850.0000000
  free_energy:      -215.4427965
  entropy:           378.9654206
  heat_capacity:     123.9369247
  energy:            106.6778111

- temperature:       860.0000000
  free_energy:      -219.2397130
  entropy:           380.4150964
  heat_capacity:     123.9547419
  energy:            107.9172699

- temperature:       870.0000000
  free_energy:      -223.0510432
  entropy:           381.8482151
  heat_capacity:     123.9719577
  energy:            109.1569039

- temperature:       880.0000000
  free_energy:      -226.8766233
  entropy:           383.2651483
  heat_capacity:     123.9885990
  energy:            110.3967072

- temperature:       890.0000000
  free_energy:      -230.7162934
  entropy:           384.6662556
  heat_capacity:     124.0046909
  energy:            111.6366741

- temperature:       900.0000000
  free_energy:      -234.5698969
  entropy:           386.0518845
  heat_capacity:     124.0202572
  energy:            112.8767992

- temperature:       910.0000000
  free_energy:      -238.4372806
  entropy:           387.4223716
  heat_capacity:     124.0353205
  energy:            114.1170775

- temperature:       920.0000000
  free_energy:      -242.3182949
  entropy:           388.7780423
  heat_capacity:     124.0499021
  energy:            115.3575040

- temperature:       930.0000000
  free_energy:      -246.2127931
  entropy:           390.1192120
  heat_capacity:     124.0640223
  energy:            116.5980740

- temperature:       940.0000000
  free_energy:      -250.1206318
  entropy:           391.4461860
  heat_capacity:     124.0777003
  energy:            117.8387830

- temperature:       950.0000000
  free_energy:      -254.0416705
  entropy:           392.7592602
  heat_capacity:     124.0909544
  energy:            119.0796266

- temperature:       960.0000000
  free_energy:      -257.9757717
  entropy:           394.0587212
  heat_capacity:     124.1038017
  energy:            120.3206007

- temperature:       970.0000000
  free_energy:      -261.9228005
  entropy:           395.3448473
  heat_capacity:     124.1162588
  energy:            121.5617014

- temperature:       980.0000000
  free_energy:      -265.8826251
  entropy:           396.6179079
  heat_capacity:     124.1283411
  energy:            122.8029247

- temperature:       990.0000000
  free_energy:      -269.8551160
  entropy:           397.8781646
  heat_capacity:     124.1400636
  energy:            124.0442670

- temperature:      1000.0000000
  free_energy:      -273.8401465
  entropy:           399.1258713
  heat_capacity:     124.1514404
  energy:            125.2857248
