4
Lattice="4.055350649339353 -5.438244509210696e-05 -0.0021789350303027828 5.9267073000383e-05 4.055488296976857 -0.0012004799215691185 0.002619375178637919 0.001442432356651573 4.449100204067408" Properties=species:S:1:pos:R:3:forces:R:3 structure_index=0 total_energy=-11.800254821777344 stress="0.022423306480050087 4.720923607237637e-05 0.0007459163316525519 4.712410009233281e-05 0.023124966770410538 0.00040832479135133326 0.0007458936306647956 0.00040835145046003163 0.10232876986265182" pbc="T T T"
Li       2.20786116       2.37812412       0.74583909      -0.00079736      -0.00008696       0.00005145
Li       0.17970592       0.35028983       0.74770447       0.00005299       0.00025983      -0.00028349
Ga       0.18112413       2.37900340       2.97180295      -0.00132851      -0.00049270      -0.00033151
Sn       2.20829463       0.35110967       2.97090479       0.00207287       0.00031983       0.00056355
8
Lattice="4.838016033968729 -0.002053899263915608 0.0031271614786985546 0.0017407986777138091 5.194407232105278 0.003611705704669049 -0.003723651047071778 -0.004500992506255807 5.982839358561297" Properties=species:S:1:pos:R:3:forces:R:3 structure_index=1 total_energy=-23.450374603271484 stress="0.021983390673995018 0.00015028350753709674 0.0003509635280352086 0.00015026166511233896 0.02106904238462448 0.0007216148660518229 0.0003509306407067925 0.0007216109079308808 -0.007781170774251223" pbc="T T T"
Li       3.15191915       0.28985413       2.30058220      -0.00052437      -0.03327670       0.00232992
Li       0.73201667       1.99148397       5.29470026       0.00075367       0.03383138      -0.00310401
Li       3.15460167       2.90942143       0.81752792      -0.00156963      -0.03475213      -0.00598174
Li       0.73296505       4.56922474       3.80676326       0.00170497       0.03382670      -0.00425078
Ga       0.73485981       4.59159630       0.81907783       0.00213136       0.01096482      -0.00309464
Ga       3.15258407       2.88552532       3.81204765      -0.00155938      -0.01070745      -0.00386643
Sn       0.73360666       2.04328690       2.29755541       0.00184404       0.01518083       0.01133003
Sn       3.15058296       0.23782738       5.28924656      -0.00278065      -0.01506744       0.00663765
6
Lattice="4.465848508226171 0.002083412422898699 1.3937289560015367 2.0161791582041775 3.994411182743836 1.3935590076012156 0.11809394241677375 0.07609717825522902 7.476817083670529" Properties=species:S:1:pos:R:3:forces:R:3 structure_index=2 total_energy=-19.14703369140625 stress="-0.0030523769091814756 9.582950588082895e-05 -0.005835066549479961 9.599978511687368e-05 -0.0076778908260166645 -0.003380743321031332 -0.005834913346916437 -0.003380996873602271 0.011269547045230865" pbc="T T T"
Li       1.49768406       1.05453636       5.90442572      -0.00179051      -0.00097404       0.01198340
Li       3.21307946       2.10872573       8.26738204       0.00386332       0.00173805      -0.01326005
Ga       2.29656723       1.54351559       3.34759440       0.00148275       0.00072373      -0.00045720
Sn       0.50933833       0.43729492       1.22591331      -0.00120501      -0.00375395       0.00449596
Sn       5.59670449       3.58001033       8.47923714      -0.00071484      -0.00027170      -0.00042571
Sn       4.08521478       2.65041871       5.46833692      -0.00163569       0.00253787      -0.00233641
8
Lattice="4.732690751552964 0.0004562562933211776 -0.0008953541102978543 -0.0013403772315295137 5.0149887340306725 -2.8901102014619418 0.0010134671083474385 -4.555167273357761e-05 5.788955881023949" Properties=species:S:1:pos:R:3:forces:R:3 structure_index=3 total_energy=-20.484962463378906 stress="0.01330072432756424 0.0002215538261225447 0.0005710853729397058 0.0002217531146015972 0.046273767948150635 -0.00019370090740267187 0.0005712450365535915 -0.0001937146735144779 0.04718079790472984" pbc="T T T"
Li       4.26836734       3.98075332       0.92074685      -0.00131563       0.02795215      -0.00106377
Li       1.90096025       4.84021226      -0.58850126       0.00042618      -0.01636900      -0.02965914
Li       1.90182004       2.43531585       3.80998681       0.00011001       0.03433542       0.00045327
Li       1.90167615       4.84098166       2.42272194      -0.00040757      -0.01872583       0.03306925
Li       4.26728669       1.55721210      -0.47966527       0.00094944      -0.01203449      -0.02563536
Li       4.26855927       1.55860190       2.31582023      -0.00077968      -0.01362643       0.02470291
Ga       4.26699390       4.03765956      -1.97233759       0.00032717      -0.00014825      -0.00406003
Sn       1.90157858       2.36705879       0.91519928       0.00069009      -0.00138362       0.00219288
9
Lattice="2.833624159489041 -0.0026412764223882985 0.0019025226553067924 0.006928331224802342 6.964978610550308 -4.009198775394775 -0.005489847425062507 -0.010129633449140033 8.03639380257653" Properties=species:S:1:pos:R:3:forces:R:3 structure_index=4 total_energy=-23.605566024780273 stress="-0.04906628280878067 -0.0009056282578967512 -0.0006801780546084046 -0.0009055266855284572 -0.018179653212428093 -5.662319017574191e-05 -0.0006800501141697168 -5.668344601872377e-05 -0.01822241023182869" pbc="T T T"
Li       2.02889622       3.34830365      -0.25538971       0.00005724       0.00721272       0.00330061
Li       2.02605533       0.74034632       3.75703360       0.00009339      -0.00669714       0.00520351
Li       0.61219067       2.95673079       2.48468874      -0.00027938      -0.03482725       0.01669728
Li       0.60762537       1.12835127       6.49611619      -0.00014441       0.03443535       0.02252838
Li       2.02867825       5.52125397       3.51713916      -0.00018251       0.00127917      -0.00509495
Li       0.61510380       5.53155502      -1.96243410       0.00101455      -0.00142719      -0.04200652
Ga       2.02920047       0.88525933       0.99665021      -0.00017240       0.00024851       0.00026080
Ga       2.02698760       3.20055124       5.02064865       0.00019246       0.00056409      -0.00200306
Sn       0.61365263       5.52704060       1.00166159      -0.00057892      -0.00078827       0.00111393
12
Lattice="3.9783440395440026 -0.0018145814705826755 -1.1807086497792407 -1.0358948667425267 7.270124071939726 -3.5014997233108116 0.16582614802732165 -0.7803212176596733 7.85221366561089" Properties=species:S:1:pos:R:3:forces:R:3 structure_index=5 total_energy=-34.528480529785156 stress="0.024720126762986183 0.0018269766587764025 -0.002423532772809267 0.0018269972642883658 0.017979696393013 0.006443371530622244 -0.0024232352152466774 0.006443763617426157 0.017012564465403557" pbc="T T T"
Li       1.55367104       4.25016943       4.33830451       0.00026106       0.02156287       0.00113855
Li       1.25109689       1.51739891       3.32317419       0.01027392       0.00901728       0.03467036
Li       0.43928979       2.36652510       0.58682466      -0.01242131      -0.00090392      -0.04172789
Li       2.06437511       0.68694477       6.06458077      -0.00886313      -0.02032386      -0.02957571
Li      -0.06981768       5.92851231      -1.13381411       0.00874931       0.01031207       0.02940721
Li       3.48506285      -0.35771941       3.56057545       0.00286752       0.00248368       0.00959209
Li      -0.68742790       6.14484477       4.07695694       0.00353603       0.00088385       0.01174635
Ga       2.11462121       4.09938139      -1.06279713      -0.00522816      -0.00819207      -0.01872311
Ga      -0.17529633       2.39319555       5.80870724      -0.00084199      -0.00192654      -0.00282404
Sn       2.70661489       0.51121817       0.93640277      -0.00065585       0.01153895      -0.00186006
Sn       2.98978661       3.38339289       1.88588688       0.00116434       0.00348138       0.00422265
Sn       0.72420035       5.26678519       1.54204356       0.00115830      -0.02793369       0.00393356
1
Lattice="2.6235410637932914 0.004831538876295237 -1.421270402732455 -0.7871763704317638 2.502212468715051 -1.4204929034967426 -0.07320343901679002 -0.10021881553805276 2.9868503743146135" Properties=species:S:1:pos:R:3:forces:R:3 structure_index=6 total_energy=-2.8358778953552246 stress="-0.21512196958065033 -0.01224208902567625 0.06682202965021133 -0.012242162600159645 -0.23056335747241974 0.09471388161182404 0.06682205945253372 0.09471384435892105 -0.1903437376022339" pbc="T T T"
Ga       0.51367197       1.42059929       1.31202778      -0.00000000      -0.00000000      -0.00000000
12
Lattice="5.519378889383738 -0.0034524855339938196 -2.0614670962354538 -0.745204269847643 5.379624874887494 -2.0071481106566194 0.05670858185790336 0.0868655034652283 8.565384696594453" Properties=species:S:1:pos:R:3:forces:R:3 structure_index=7 total_energy=-35.69179916381836 stress="0.02656400017440319 -0.00023573284852318466 -0.006089647300541401 -0.00023577013052999973 0.024941662326455116 -0.004176872316747904 -0.006089691538363695 -0.004176863003522158 0.014286006800830364" pbc="T T T"
Li       5.08310953       2.89051103      -0.79038364      -0.01562792      -0.00818343      -0.04009663
Li       1.96442449       2.44435405       3.48771367      -0.00029976      -0.00054574      -0.00248044
Li       2.70699157       0.11120770       1.27463343      -0.01313087      -0.01666545      -0.03603730
Li       4.72154657       2.44213821       2.45697681      -0.00055010       0.00084792      -0.00005597
Li       1.60163878       2.00162010       6.72797497       0.01401616       0.00822317       0.04011367
Li       3.97709161       4.76541073       4.66866945       0.01467228       0.02146540       0.03547769
Ga       4.34785346       5.13028843       1.44948334       0.00103841       0.00102017       0.00027886
Ga       1.58998596       5.13228339       2.48002621      -0.00075710       0.00125150       0.00042688
Sn       2.50806662       2.99096936       0.73592998      -0.00726322      -0.00163615      -0.02054960
Sn       0.10777836       0.41134908       2.73367334      -0.00623739      -0.02454064      -0.01773536
Sn       1.05612002       4.48530592       5.26558862       0.00463475       0.02195401       0.01765756
Sn       4.17735237       1.88736835       5.20651655       0.00950473      -0.00319076       0.02300063
6
Lattice="4.390545904293297 -0.005312138309409597 1.3912787091269678 1.971930000546924 3.9188984219530174 1.387800779735156 0.055655288312260486 0.03593987440365445 7.447347452175307" Properties=species:S:1:pos:R:3:forces:R:3 structure_index=8 total_energy=-18.524612426757812 stress="-0.013276883400976658 0.0006843326264061034 0.000139219977427274 0.0006843442679382861 -0.014148756861686707 0.0007777176797389984 0.00013905884406995028 0.0007777281571179628 -0.01738796941936016" pbc="T T T"
Li       2.01088419       0.50923962       2.68037118       0.00552297       0.00466420      -0.02805280
Li       2.33192666       3.41080897       1.66574851      -0.00783297      -0.00563315       0.02600735
Li       3.18453891       3.93756164       6.59058983       0.00026879      -0.00021762      -0.00076100
Sn       5.83537773       2.86349658       5.84163934      -0.01376700      -0.00635852       0.03355265
Sn       2.95264749       1.08715001       7.34188315       0.01402443       0.00648273      -0.03186539
Sn       4.36634149       1.95719173       2.86807698       0.00178380       0.00106236       0.00111921
4
Lattice="4.284094214516446 -0.0009124207407052731 -0.00019071351158935713 0.0037099242980003946 4.283838090816735 0.0007014048869379157 9.11606388020274e-05 -0.0003357301922691192 4.355511226702322" Properties=species:S:1:pos:R:3:forces:R:3 structure_index=9 total_energy=-12.158610343933105 stress="0.09377054870128632 0.008229284547269344 -0.0004991139867343009 0.00822931993752718 0.09189800173044205 0.0018388265743851662 -0.0004991486202925444 0.0018388406606391072 0.07961807399988174" pbc="T T T"
Li       2.21601423       4.01179361       3.73926796       0.00045755       0.00040833      -0.00070698
Ga       2.21386118       1.87032823       1.56052874       0.00099344      -0.00075478       0.00168596
Ga       0.07488199       4.01191402       1.56120902      -0.00140085       0.00151529       0.00108856
Sn       0.07193183       1.87044269       3.73914948      -0.00005014      -0.00116883      -0.00206753
12
Lattice="4.0886172968676355 0.0018489795583878112 1.1620917672563789 1.2709325386100925 7.386897900676536 3.2898116256611014 -0.0059264328245575305 0.1055081800985694 7.795286841301938" Properties=species:S:1:pos:R:3:forces:R:3 structure_index=10 total_energy=-35.991600036621094 stress="0.01820817030966282 0.0008787721744738519 -0.0011504822177812457 0.0008788383565843105 0.017906302586197853 -0.0032459674403071404 -0.0011505847796797752 -0.003245992586016655 0.0220512505620718" pbc="T T T"
Li       3.49614303       5.44016078       5.29878602       0.00133419      -0.02695224      -0.00329841
Li       0.52811152       0.11673159       0.20256132      -0.00029721      -0.00836386       0.00431428
Li       3.66939949       2.42027820       4.69581522      -0.00371897      -0.01163103       0.01310608
Li       4.43114213       3.26301485       9.78780800       0.00104548      -0.01763221      -0.00358212
Ga       1.28490854       0.87831230       5.31538187      -0.00452696       0.04608619       0.01374873
Ga       2.73188974       4.94742844       7.99050004      -0.00317840       0.00254970       0.01177059
Ga       1.11451862       3.72654062       5.90997670       0.00274479       0.01411778      -0.01203643
Ga       2.88958114       2.10773425       7.44030439      -0.00764189       0.01219553       0.02828733
Ga       5.10599614       6.66831513       7.40791228       0.00455367      -0.04471248      -0.01629629
Sn       2.09023352       1.07694418       2.48070680      -0.00185789       0.00496162       0.00342782
Sn       1.89891569       4.29402769       3.14664062       0.00921120       0.00610854      -0.02966536
Sn       4.31926176       6.41741560      10.17718904       0.00233197       0.02327246      -0.00977623
10
Lattice="2.9831204579922748 0.0015527518798996152 -0.001312462881268868 -0.004406203679992907 8.387963692714091 -0.00460580258466035 0.0036433833410161793 0.0037692859845020895 8.36641635177717" Properties=species:S:1:pos:R:3:forces:R:3 structure_index=11 total_energy=-30.95918846130371 stress="0.00026776755112223327 3.5915991247748025e-06 -2.4571074845880503e-06 3.4869640330725815e-06 -0.002979845507070422 -6.395455420715734e-05 -2.5137494503724156e-06 -6.382910942193121e-05 -0.006511219311505556" pbc="T T T"
Li       0.01936358       2.30318856       5.72621874      -0.00004715       0.03162021      -0.03556729
Li       0.01747754       4.22751745       3.80278870       0.00004721      -0.03157869       0.03555787
Li       0.01828283       6.50144833       7.98391010      -0.00008824       0.02654110       0.03249613
Li       0.01855288       0.02929757       1.54505559       0.00009420      -0.02650297      -0.03240536
Ga       1.50778116       7.46015300       4.76158865      -0.00000117      -0.00003943      -0.00002846
Ga       1.50817915       3.26429724       0.58068529      -0.00001329      -0.00002014      -0.00005575
Sn       1.50742024       5.93263602       2.11136145      -0.00000314      -0.00724747      -0.00676783
Sn       1.50995579       4.79152039       6.29702882      -0.00007873       0.00824100      -0.00655233
Sn       1.51254236       0.59971445       7.41638957       0.00000523       0.00723919       0.00676156
Sn       1.51000323       1.74075622       3.23067432       0.00008506      -0.00825277       0.00656145
12
Lattice="4.3130622357356545 0.012952593676962032 -0.006158200267451436 -0.013191978105169271 4.311403941546736 -0.0004146223392698298 0.018969937308290042 0.0019102566258310714 12.099992693050622" Properties=species:S:1:pos:R:3:forces:R:3 structure_index=12 total_energy=-35.025997161865234 stress="0.03245041146874428 -0.0013051120331510901 0.0018217526376247406 -0.0013051669811829925 0.0235699862241745 0.00026285924832336605 0.0018216465832665563 0.00026287458604201674 -0.0012894202955067158" pbc="T T T"
Li       2.04026313       2.40945174       8.33950394      -0.00013399       0.00010642       0.02887086
Li       4.19315355       2.41530135       6.37103650       0.00046350       0.00010501      -0.02029197
Li       4.21066205       0.26133127      12.15065520      -0.00052354       0.00006145      -0.02618092
Li       4.18855398       2.41538197       2.01813812      -0.00063205      -0.00036439       0.01849451
Ga       4.20040230       2.41649745      10.24386164       0.00016551       0.00039323       0.00099182
Ga       2.04350808       0.25328411       6.53700547       0.00076227       0.00013148      -0.02203615
Ga       2.03750399       0.25329799       1.85631560       0.00086417      -0.00001902       0.02529567
Ga       2.04984991       0.25476632      10.24855195       0.00086177      -0.00045778      -0.00255151
Ga       4.20353501       0.26040631       8.38235981      -0.00100603      -0.00039019       0.01510713
Ga       2.04751308       2.41083859      12.11069159      -0.00057980      -0.00025133      -0.01804528
Sn       2.03424949       2.40858083       4.28935959       0.00071483      -0.00046790      -0.00523588
Sn       4.19731984       0.25919937       4.10182549      -0.00095666       0.00115300       0.00558172
11
Lattice="3.065534467542187 -0.0006988445641054039 2.484587264329315e-05 0.0018222691186130194 8.01388037876071 -0.5197287416107464 -8.133528886485178e-05 0.12820075643580714 9.5575651810915" Properties=species:S:1:pos:R:3:forces:R:3 structure_index=13 total_energy=-35.194801330566406 stress="0.007499331142753363 -3.2693951652618125e-06 -1.6154606328200316e-06 -3.187516995240003e-06 0.0034274423960596323 -0.00047656582319177687 -1.5262904753399198e-06 -0.00047655979869887233 0.0007121500675566494" pbc="T T T"
Li       0.62813743       1.28611749       8.71514555       0.00013004       0.03994441      -0.01759415
Li       0.62893820       4.18413212       5.76487689      -0.00005401      -0.03931187       0.01716341
Li       0.62912722       4.59259342       1.60962935      -0.00007186       0.02820354       0.01031390
Li       0.62815582       0.75076070       3.31133998       0.00000831      -0.02872607      -0.00925553
Ga       2.16150904       3.25676084       3.62681719       0.00000692      -0.01271440      -0.00359900
Ga       2.16130087       2.08560087       1.29509685      -0.00008307       0.01273567       0.00359391
Sn       2.16214068       6.26743119       3.86315115       0.00003900      -0.03553760       0.02858242
Sn       2.16101891       1.47617588       5.99629862       0.00002955      -0.02917923      -0.02380218
Sn       2.16223666       6.74188251       6.97940145      -0.00002177      -0.00024623       0.00016222
Sn       2.16160912       3.99410112       8.48360465       0.00000689       0.02918177       0.02236083
Sn       2.16240581       7.08856135       0.53800476       0.00001003       0.03564996      -0.02792583
11
Lattice="4.237739977363482 0.0006109219506029078 1.1354209708988519 1.2813226726867788 7.566944477715509 3.6761698930784013 0.0029402682339240882 -0.07036740204349806 8.453702543839894" Properties=species:S:1:pos:R:3:forces:R:3 structure_index=14 total_energy=-36.82807922363281 stress="-0.0239996500313282 -0.000459243543446064 0.0016898816684260964 -0.00045928082545287907 -0.009617581963539124 0.0015846765600144863 0.0016898312605917454 0.0015848170733079314 -0.02922104112803936" pbc="T T T"
Li       2.64190975       4.93677580       9.52812119      -0.01014562       0.00077942       0.03964303
Li       2.02343653       1.27979926       3.38375351      -0.00494980       0.02842125       0.01669721
Li       3.59383383       2.51405692       5.99236612       0.00387558      -0.03228478      -0.01703313
Ga       2.80767132       1.91406343       8.91906127      -0.00321595       0.01413757       0.01323853
Sn       1.78838745       4.33938763       4.26296685       0.01038582       0.00069463      -0.04794167
Sn       4.26946073       6.26533037      11.93429649       0.00389568      -0.02777501      -0.02193623
Sn       1.22911504       0.62502137       6.33820700       0.00415897       0.01876520      -0.00706817
Sn       4.41078783       3.08972784       2.95249214      -0.00620418       0.02959835       0.01677837
Sn       0.36460600       0.01153449       1.10203688      -0.00300786      -0.03161338       0.01240572
Sn       5.10747428       6.89680990       8.79552896      -0.00107402      -0.01355255       0.01175299
Sn       0.98907422       3.76234000       7.22440113       0.00628140       0.01282934      -0.01653668
14
Lattice="4.765073161547278 0.009000522918114326 -0.004031432627650039 -0.016338601305306042 6.813784210072411 -3.975723617388698 0.0057480579123407914 -0.195525139080166 8.06528625927318" Properties=species:S:1:pos:R:3:forces:R:3 structure_index=15 total_energy=-41.156375885009766 stress="0.028957810252904892 -0.001555330352857709 -0.004039030522108078 -0.0015552793629467487 -0.017598090693354607 0.000192723935469985 -0.004039039369672537 0.00019266382150817662 0.003620106726884842" pbc="T T T"
Li       0.34722219       2.69504722       3.63441182       0.00020531      -0.01585869      -0.00634257
Li       2.72811999       4.04997594       4.99299789      -0.00008231      -0.00239460       0.00994773
Li       2.73327908       0.29018496       1.40162317      -0.00004247       0.00930890       0.00136680
Li       2.72251287       6.02712064       2.67456541       0.00001274       0.00649918       0.00763291
Li       2.72828339       3.01787278       2.06639265      -0.00023881       0.01807438       0.00953919
Li       0.34179647       3.85068571      -1.51622472      -0.00041527       0.00771738       0.00488581
Li       0.35229933      -0.03774906       3.04379543       0.00005751      -0.01576477      -0.00992048
Li       0.35261343       0.80333705       6.06940910       0.00035583      -0.00356655      -0.00561206
Ga       0.34724871       1.86616797       0.73522884      -0.00021337       0.00437646      -0.00292559
Ga       2.72813486       2.20122846      -0.75582407      -0.00024870       0.00583205      -0.00334024
Sn       0.34189159       4.68313319       1.41501370       0.00074700      -0.00208204       0.01409411
Sn       2.72256963       5.06875458      -0.26425615      -0.00057805       0.00148209      -0.01544520
Sn       0.34203075       5.56336384       4.34181440      -0.00004611      -0.01640014      -0.00088261
Sn       2.73309406       1.23433262       4.37906359       0.00048673       0.00277633      -0.00299778
8
Lattice="4.688277634188346 -0.0005214144700379571 0.0003768642678511721 0.0005228723066278296 4.820761583705303 -0.002354964445436248 -0.0005616585175407594 0.003145237400206364 6.546732713403941" Properties=species:S:1:pos:R:3:forces:R:3 structure_index=16 total_energy=-23.461063385009766 stress="-0.010679785162210464 -0.0006530333193950355 -0.00011278846795903519 -0.0006530194659717381 -0.0382111519575119 -3.702242611325346e-05 -0.00011290859401924536 -3.714798003784381e-05 -0.026627106592059135" pbc="T T T"
Li       1.99158371       2.33706986       2.51118194       0.00061401      -0.02109141      -0.00001776
Li       1.99132984       2.33919052       5.78491635       0.00059813      -0.02215076      -0.00048866
Li       4.33590139       4.11839465       5.78335254       0.00017902       0.00704622       0.00060464
Li       4.33605717       4.11712925       2.51077188       0.00037787       0.00648096      -0.00021240
Ga       1.99240947       4.66568574       0.87233266      -0.00051892       0.00648368       0.00109549
Ga       1.99227821       4.66999682       4.14690358      -0.00075469       0.00207958       0.00014036
Sn       4.33586826       1.68998366       4.14849394      -0.00039685       0.00719790      -0.00002260
Sn       4.33600848       1.68587705       0.87526826      -0.00009857       0.01395381      -0.00109905
4
Lattice="4.365614026311448 -0.0023788037208847517 0.002739122478186461 0.005480225971526334 4.538370027857568 0.0008504214768357029 -0.001305155374755817 -0.000498528975838136 4.536775720035026" Properties=species:S:1:pos:R:3:forces:R:3 structure_index=17 total_energy=-13.074039459228516 stress="0.06775251775979996 0.010395356453955173 0.005474517587572336 0.010395410470664501 -0.06634066998958588 0.0014389121206477284 0.0054745543748140335 0.0014389004791155457 -0.07201152294874191" pbc="T T T"
Li       1.84819376       0.28159219       4.20112954      -0.00051084      -0.00177473       0.00080834
Ga       1.85141644       2.54959846       1.93408438      -0.00051329       0.00294712      -0.00220040
Sn       4.03109714       0.28147932       1.93434551       0.00081915      -0.00529204      -0.00198800
Sn       4.03360569       2.54835450       4.20203143       0.00020497       0.00411964       0.00338006
18
Lattice="5.320234329762028 0.021807267277683597 -0.24900602678284414 -1.126215825743237 6.817916280278851 -2.1517622322829477 -0.13666562859600687 -0.1035998340159671 9.440559772307287" Properties=species:S:1:pos:R:3:forces:R:3 structure_index=18 total_energy=-50.902957916259766 stress="0.008824625052511692 -0.0013561341911554337 1.3825251699017826e-05 -0.0013561166124418378 0.008146860636770725 0.0018227071268483996 1.3673076864506584e-05 0.0018228553235530853 0.009180702269077301" pbc="T T T"
Li       1.88808656       1.87547805       2.77458486       0.00027267       0.00698033       0.01726038
Li      -0.92589635       4.82720533       7.34313055      -0.02276596       0.02891192      -0.02273880
Li       3.28491068       2.87503203       5.45792130       0.03543534      -0.02453267      -0.00577094
Li       1.88312483       6.25630770       5.37415459       0.00895259       0.01020281      -0.00558290
Li       4.46919460       0.58014162       4.11180495      -0.01845200      -0.01804378      -0.00486830
Li       1.72870348       4.69092277       2.95874524      -0.00895681      -0.01189508      -0.00719259
Li       4.48314668       0.58683809       1.11276788       0.02952923       0.02263310      -0.00067697
Li       0.65956138       3.08668885       0.39176677       0.00500284       0.00221068       0.00652507
Li       0.39899579       1.39573520       7.46581952      -0.00401311      -0.00592237       0.00884983
Li       3.34293445       4.68975984       0.64841114      -0.00705200      -0.00696831      -0.00395389
Ga       1.77188736       4.62756847       7.58019830      -0.01368433      -0.00601264       0.00697819
Ga       1.94289750       0.56878592       5.26920959      -0.02084718      -0.01410323      -0.01296358
Ga       4.41254332       2.97155742       2.51075636       0.00831714       0.00913140       0.02187664
Ga       1.74229808       0.45535528       0.25673644       0.03247483       0.01294682       0.01097216
Sn       4.29897636       5.50399869       4.02106821      -0.00869769      -0.01589906      -0.00336463
Sn       0.65575605       3.22172069       5.24475161      -0.01481234       0.00894664      -0.00244555
Sn       0.54336436       5.91651791       0.59404219      -0.00998257      -0.00934538       0.00340535
Sn       3.23770234       2.29003538       8.41602232       0.00927933       0.01075881      -0.00630951
20
Lattice="6.347324284345495 0.10741689394497743 -1.6602541455984272 -1.1806129152132294 5.533691897643089 -3.081044684235403 0.056538737567883045 -0.04017620827177721 9.951841544949973" Properties=species:S:1:pos:R:3:forces:R:3 structure_index=19 total_energy=-55.858463287353516 stress="0.0014606344047933817 -0.00029948484734632075 -0.0028691210318356752 -0.0002994741662405431 0.0014169986825436354 -0.003617094596847892 -0.002869163639843464 -0.0036169139202684164 0.004811220336705446" pbc="T T T"
Li       0.32502839       3.16202359       4.99812685      -0.01794351      -0.00021950       0.00795024
Li       4.56636213       1.47163245       7.43716910       0.00298451       0.01283656       0.01602727
Li       3.82419608       4.21897608      -1.64949096       0.00006528      -0.00407883      -0.00631280
Li       0.94416141       0.34081928       3.97713975      -0.01849486      -0.00540751      -0.01407564
Li       4.43596282       1.45092694       2.37929250       0.01487749      -0.01861815       0.00231388
Li       3.18358140       2.06880116       4.94984890       0.00991938      -0.01019878      -0.00565225
Li       0.93549814       0.31993654       9.03001458       0.00363546       0.00981002      -0.00100743
Ga       1.07179657       5.35488619      -1.59237984       0.00279381       0.01392492      -0.01443684
Ga       5.87496348       0.81954166      -0.13141841      -0.01648933       0.00333130       0.02091742
Ga       3.92667892       4.35956050       3.48036074       0.01869870       0.01329546      -0.01783687
Ga       1.88594220       2.60800004       2.47857251      -0.01654272       0.00679499       0.02197899
Ga       2.33740459       4.83244714       0.88373377       0.03662769       0.00645627      -0.01573584
Ga       0.35681694       2.99888586      -0.08484632      -0.03533600       0.00271331       0.01208930
Ga       1.21486100       5.41501884       3.45688814      -0.01778797      -0.00019239      -0.00338712
Ga       5.86648776       1.07680428       4.94318908       0.02065559      -0.00149258       0.00131838
Ga       2.97638201       2.01738472      -0.09707890       0.03295845       0.00747515      -0.00824524
Ga       1.81141052       2.51158002       7.38880934       0.00092557      -0.01554848      -0.01828884
Ga       5.33031913       3.71502679       5.84792613       0.00247820      -0.01868760       0.00287388
Ga       2.45449785       4.78912537       5.90544562      -0.01795571       0.00694207       0.02666018