phonopy:
  version: "2.37.1"
  frequency_unit_conversion_factor: 15.633302
  symmetry_tolerance: 1.00000e-05

space_group:
  type: "P6/mmm"
  number: 191
  Hall_symbol: "-P 6 2"

primitive_matrix:
- [  1.000000000000000,  0.000000000000000,  0.000000000000000 ]
- [  0.000000000000000,  1.000000000000000,  0.000000000000000 ]
- [  0.000000000000000,  0.000000000000000,  1.000000000000000 ]

supercell_matrix:
- [   3,   0,   0 ]
- [   0,   3,   0 ]
- [   0,   0,   4 ]

primitive_cell:
  lattice:
  - [     4.905287979999999,     0.000000000000000,     0.000000000000000 ] # a
  - [    -2.452643972205582,     4.248104013832064,     0.000000000000000 ] # b
  - [     0.000000000000000,     0.000000000000000,     2.889208000000000 ] # c
  points:
  - symbol: Li # 1
    coordinates: [  0.000000000000000,  0.000000000000000,  0.000000000000000 ]
    mass: 6.940000
  - symbol: Li # 2
    coordinates: [  0.666666666666666,  0.333333333333333,  0.500000000000000 ]
    mass: 6.940000
  - symbol: Li # 3
    coordinates: [  0.333333333333333,  0.666666666666666,  0.500000000000000 ]
    mass: 6.940000
  reciprocal_lattice: # without 2pi
  - [     0.203861629343116,     0.117699565440105,     0.000000000000000 ] # a*
  - [     0.000000000000000,     0.235399132588078,     0.000000000000000 ] # b*
  - [     0.000000000000000,     0.000000000000000,     0.346115613690672 ] # c*

unit_cell:
  lattice:
  - [     4.905287980000000,     0.000000000000000,     0.000000000000000 ] # a
  - [    -2.452643972205582,     4.248104013832065,     0.000000000000000 ] # b
  - [     0.000000000000000,     0.000000000000000,     2.889208000000000 ] # c
  points:
  - symbol: Li # 1
    coordinates: [  0.000000000000000,  0.000000000000000,  0.000000000000000 ]
    mass: 6.940000
    reduced_to: 1
  - symbol: Li # 2
    coordinates: [  0.666666666666666,  0.333333333333333,  0.500000000000000 ]
    mass: 6.940000
    reduced_to: 2
  - symbol: Li # 3
    coordinates: [  0.333333333333333,  0.666666666666666,  0.500000000000000 ]
    mass: 6.940000
    reduced_to: 3

supercell:
  lattice:
  - [    14.715863939999998,     0.000000000000000,     0.000000000000000 ] # a
  - [    -7.357931916616748,    12.744312041496194,     0.000000000000000 ] # b
  - [     0.000000000000000,     0.000000000000000,    11.556832000000000 ] # c
  points:
  - symbol: Li # 1
    coordinates: [  0.000000000000000,  0.000000000000000,  0.000000000000000 ]
    mass: 6.940000
    reduced_to: 1
  - symbol: Li # 2
    coordinates: [  0.333333333333333,  0.000000000000000,  0.000000000000000 ]
    mass: 6.940000
    reduced_to: 1
  - symbol: Li # 3
    coordinates: [  0.666666666666667,  0.000000000000000,  0.000000000000000 ]
    mass: 6.940000
    reduced_to: 1
  - symbol: Li # 4
    coordinates: [  0.000000000000000,  0.333333333333333,  0.000000000000000 ]
    mass: 6.940000
    reduced_to: 1
  - symbol: Li # 5
    coordinates: [  0.333333333333333,  0.333333333333333,  0.000000000000000 ]
    mass: 6.940000
    reduced_to: 1
  - symbol: Li # 6
    coordinates: [  0.666666666666667,  0.333333333333333,  0.000000000000000 ]
    mass: 6.940000
    reduced_to: 1
  - symbol: Li # 7
    coordinates: [  0.000000000000000,  0.666666666666667,  0.000000000000000 ]
    mass: 6.940000
    reduced_to: 1
  - symbol: Li # 8
    coordinates: [  0.333333333333333,  0.666666666666667,  0.000000000000000 ]
    mass: 6.940000
    reduced_to: 1
  - symbol: Li # 9
    coordinates: [  0.666666666666667,  0.666666666666667,  0.000000000000000 ]
    mass: 6.940000
    reduced_to: 1
  - symbol: Li # 10
    coordinates: [  0.000000000000000,  0.000000000000000,  0.250000000000000 ]
    mass: 6.940000
    reduced_to: 1
  - symbol: Li # 11
    coordinates: [  0.333333333333333,  0.000000000000000,  0.250000000000000 ]
    mass: 6.940000
    reduced_to: 1
  - symbol: Li # 12
    coordinates: [  0.666666666666667,  0.000000000000000,  0.250000000000000 ]
    mass: 6.940000
    reduced_to: 1
  - symbol: Li # 13
    coordinates: [  0.000000000000000,  0.333333333333333,  0.250000000000000 ]
    mass: 6.940000
    reduced_to: 1
  - symbol: Li # 14
    coordinates: [  0.333333333333333,  0.333333333333333,  0.250000000000000 ]
    mass: 6.940000
    reduced_to: 1
  - symbol: Li # 15
    coordinates: [  0.666666666666667,  0.333333333333333,  0.250000000000000 ]
    mass: 6.940000
    reduced_to: 1
  - symbol: Li # 16
    coordinates: [  0.000000000000000,  0.666666666666667,  0.250000000000000 ]
    mass: 6.940000
    reduced_to: 1
  - symbol: Li # 17
    coordinates: [  0.333333333333333,  0.666666666666667,  0.250000000000000 ]
    mass: 6.940000
    reduced_to: 1
  - symbol: Li # 18
    coordinates: [  0.666666666666667,  0.666666666666667,  0.250000000000000 ]
    mass: 6.940000
    reduced_to: 1
  - symbol: Li # 19
    coordinates: [  0.000000000000000,  0.000000000000000,  0.500000000000000 ]
    mass: 6.940000
    reduced_to: 1
  - symbol: Li # 20
    coordinates: [  0.333333333333333,  0.000000000000000,  0.500000000000000 ]
    mass: 6.940000
    reduced_to: 1
  - symbol: Li # 21
    coordinates: [  0.666666666666667,  0.000000000000000,  0.500000000000000 ]
    mass: 6.940000
    reduced_to: 1
  - symbol: Li # 22
    coordinates: [  0.000000000000000,  0.333333333333333,  0.500000000000000 ]
    mass: 6.940000
    reduced_to: 1
  - symbol: Li # 23
    coordinates: [  0.333333333333333,  0.333333333333333,  0.500000000000000 ]
    mass: 6.940000
    reduced_to: 1
  - symbol: Li # 24
    coordinates: [  0.666666666666667,  0.333333333333333,  0.500000000000000 ]
    mass: 6.940000
    reduced_to: 1
  - symbol: Li # 25
    coordinates: [  0.000000000000000,  0.666666666666667,  0.500000000000000 ]
    mass: 6.940000
    reduced_to: 1
  - symbol: Li # 26
    coordinates: [  0.333333333333333,  0.666666666666667,  0.500000000000000 ]
    mass: 6.940000
    reduced_to: 1
  - symbol: Li # 27
    coordinates: [  0.666666666666667,  0.666666666666667,  0.500000000000000 ]
    mass: 6.940000
    reduced_to: 1
  - symbol: Li # 28
    coordinates: [  0.000000000000000,  0.000000000000000,  0.750000000000000 ]
    mass: 6.940000
    reduced_to: 1
  - symbol: Li # 29
    coordinates: [  0.333333333333333,  0.000000000000000,  0.750000000000000 ]
    mass: 6.940000
    reduced_to: 1
  - symbol: Li # 30
    coordinates: [  0.666666666666667,  0.000000000000000,  0.750000000000000 ]
    mass: 6.940000
    reduced_to: 1
  - symbol: Li # 31
    coordinates: [  0.000000000000000,  0.333333333333333,  0.750000000000000 ]
    mass: 6.940000
    reduced_to: 1
  - symbol: Li # 32
    coordinates: [  0.333333333333333,  0.333333333333333,  0.750000000000000 ]
    mass: 6.940000
    reduced_to: 1
  - symbol: Li # 33
    coordinates: [  0.666666666666667,  0.333333333333333,  0.750000000000000 ]
    mass: 6.940000
    reduced_to: 1
  - symbol: Li # 34
    coordinates: [  0.000000000000000,  0.666666666666667,  0.750000000000000 ]
    mass: 6.940000
    reduced_to: 1
  - symbol: Li # 35
    coordinates: [  0.333333333333333,  0.666666666666667,  0.750000000000000 ]
    mass: 6.940000
    reduced_to: 1
  - symbol: Li # 36
    coordinates: [  0.666666666666667,  0.666666666666667,  0.750000000000000 ]
    mass: 6.940000
    reduced_to: 1
  - symbol: Li # 37
    coordinates: [  0.222222222222222,  0.111111111111111,  0.125000000000000 ]
    mass: 6.940000
    reduced_to: 37
  - symbol: Li # 38
    coordinates: [  0.555555555555555,  0.111111111111111,  0.125000000000000 ]
    mass: 6.940000
    reduced_to: 37
  - symbol: Li # 39
    coordinates: [  0.888888888888889,  0.111111111111111,  0.125000000000000 ]
    mass: 6.940000
    reduced_to: 37
  - symbol: Li # 40
    coordinates: [  0.222222222222222,  0.444444444444444,  0.125000000000000 ]
    mass: 6.940000
    reduced_to: 37
  - symbol: Li # 41
    coordinates: [  0.555555555555555,  0.444444444444444,  0.125000000000000 ]
    mass: 6.940000
    reduced_to: 37
  - symbol: Li # 42
    coordinates: [  0.888888888888889,  0.444444444444444,  0.125000000000000 ]
    mass: 6.940000
    reduced_to: 37
  - symbol: Li # 43
    coordinates: [  0.222222222222222,  0.777777777777778,  0.125000000000000 ]
    mass: 6.940000
    reduced_to: 37
  - symbol: Li # 44
    coordinates: [  0.555555555555555,  0.777777777777778,  0.125000000000000 ]
    mass: 6.940000
    reduced_to: 37
  - symbol: Li # 45
    coordinates: [  0.888888888888889,  0.777777777777778,  0.125000000000000 ]
    mass: 6.940000
    reduced_to: 37
  - symbol: Li # 46
    coordinates: [  0.222222222222222,  0.111111111111111,  0.375000000000000 ]
    mass: 6.940000
    reduced_to: 37
  - symbol: Li # 47
    coordinates: [  0.555555555555555,  0.111111111111111,  0.375000000000000 ]
    mass: 6.940000
    reduced_to: 37
  - symbol: Li # 48
    coordinates: [  0.888888888888889,  0.111111111111111,  0.375000000000000 ]
    mass: 6.940000
    reduced_to: 37
  - symbol: Li # 49
    coordinates: [  0.222222222222222,  0.444444444444444,  0.375000000000000 ]
    mass: 6.940000
    reduced_to: 37
  - symbol: Li # 50
    coordinates: [  0.555555555555555,  0.444444444444444,  0.375000000000000 ]
    mass: 6.940000
    reduced_to: 37
  - symbol: Li # 51
    coordinates: [  0.888888888888889,  0.444444444444444,  0.375000000000000 ]
    mass: 6.940000
    reduced_to: 37
  - symbol: Li # 52
    coordinates: [  0.222222222222222,  0.777777777777778,  0.375000000000000 ]
    mass: 6.940000
    reduced_to: 37
  - symbol: Li # 53
    coordinates: [  0.555555555555555,  0.777777777777778,  0.375000000000000 ]
    mass: 6.940000
    reduced_to: 37
  - symbol: Li # 54
    coordinates: [  0.888888888888889,  0.777777777777778,  0.375000000000000 ]
    mass: 6.940000
    reduced_to: 37
  - symbol: Li # 55
    coordinates: [  0.222222222222222,  0.111111111111111,  0.625000000000000 ]
    mass: 6.940000
    reduced_to: 37
  - symbol: Li # 56
    coordinates: [  0.555555555555555,  0.111111111111111,  0.625000000000000 ]
    mass: 6.940000
    reduced_to: 37
  - symbol: Li # 57
    coordinates: [  0.888888888888889,  0.111111111111111,  0.625000000000000 ]
    mass: 6.940000
    reduced_to: 37
  - symbol: Li # 58
    coordinates: [  0.222222222222222,  0.444444444444444,  0.625000000000000 ]
    mass: 6.940000
    reduced_to: 37
  - symbol: Li # 59
    coordinates: [  0.555555555555555,  0.444444444444444,  0.625000000000000 ]
    mass: 6.940000
    reduced_to: 37
  - symbol: Li # 60
    coordinates: [  0.888888888888889,  0.444444444444444,  0.625000000000000 ]
    mass: 6.940000
    reduced_to: 37
  - symbol: Li # 61
    coordinates: [  0.222222222222222,  0.777777777777778,  0.625000000000000 ]
    mass: 6.940000
    reduced_to: 37
  - symbol: Li # 62
    coordinates: [  0.555555555555555,  0.777777777777778,  0.625000000000000 ]
    mass: 6.940000
    reduced_to: 37
  - symbol: Li # 63
    coordinates: [  0.888888888888889,  0.777777777777778,  0.625000000000000 ]
    mass: 6.940000
    reduced_to: 37
  - symbol: Li # 64
    coordinates: [  0.222222222222222,  0.111111111111111,  0.875000000000000 ]
    mass: 6.940000
    reduced_to: 37
  - symbol: Li # 65
    coordinates: [  0.555555555555555,  0.111111111111111,  0.875000000000000 ]
    mass: 6.940000
    reduced_to: 37
  - symbol: Li # 66
    coordinates: [  0.888888888888889,  0.111111111111111,  0.875000000000000 ]
    mass: 6.940000
    reduced_to: 37
  - symbol: Li # 67
    coordinates: [  0.222222222222222,  0.444444444444444,  0.875000000000000 ]
    mass: 6.940000
    reduced_to: 37
  - symbol: Li # 68
    coordinates: [  0.555555555555555,  0.444444444444444,  0.875000000000000 ]
    mass: 6.940000
    reduced_to: 37
  - symbol: Li # 69
    coordinates: [  0.888888888888889,  0.444444444444444,  0.875000000000000 ]
    mass: 6.940000
    reduced_to: 37
  - symbol: Li # 70
    coordinates: [  0.222222222222222,  0.777777777777778,  0.875000000000000 ]
    mass: 6.940000
    reduced_to: 37
  - symbol: Li # 71
    coordinates: [  0.555555555555555,  0.777777777777778,  0.875000000000000 ]
    mass: 6.940000
    reduced_to: 37
  - symbol: Li # 72
    coordinates: [  0.888888888888889,  0.777777777777778,  0.875000000000000 ]
    mass: 6.940000
    reduced_to: 37
  - symbol: Li # 73
    coordinates: [  0.111111111111111,  0.222222222222222,  0.125000000000000 ]
    mass: 6.940000
    reduced_to: 73
  - symbol: Li # 74
    coordinates: [  0.444444444444444,  0.222222222222222,  0.125000000000000 ]
    mass: 6.940000
    reduced_to: 73
  - symbol: Li # 75
    coordinates: [  0.777777777777778,  0.222222222222222,  0.125000000000000 ]
    mass: 6.940000
    reduced_to: 73
  - symbol: Li # 76
    coordinates: [  0.111111111111111,  0.555555555555555,  0.125000000000000 ]
    mass: 6.940000
    reduced_to: 73
  - symbol: Li # 77
    coordinates: [  0.444444444444444,  0.555555555555555,  0.125000000000000 ]
    mass: 6.940000
    reduced_to: 73
  - symbol: Li # 78
    coordinates: [  0.777777777777778,  0.555555555555555,  0.125000000000000 ]
    mass: 6.940000
    reduced_to: 73
  - symbol: Li # 79
    coordinates: [  0.111111111111111,  0.888888888888889,  0.125000000000000 ]
    mass: 6.940000
    reduced_to: 73
  - symbol: Li # 80
    coordinates: [  0.444444444444444,  0.888888888888889,  0.125000000000000 ]
    mass: 6.940000
    reduced_to: 73
  - symbol: Li # 81
    coordinates: [  0.777777777777778,  0.888888888888889,  0.125000000000000 ]
    mass: 6.940000
    reduced_to: 73
  - symbol: Li # 82
    coordinates: [  0.111111111111111,  0.222222222222222,  0.375000000000000 ]
    mass: 6.940000
    reduced_to: 73
  - symbol: Li # 83
    coordinates: [  0.444444444444444,  0.222222222222222,  0.375000000000000 ]
    mass: 6.940000
    reduced_to: 73
  - symbol: Li # 84
    coordinates: [  0.777777777777778,  0.222222222222222,  0.375000000000000 ]
    mass: 6.940000
    reduced_to: 73
  - symbol: Li # 85
    coordinates: [  0.111111111111111,  0.555555555555555,  0.375000000000000 ]
    mass: 6.940000
    reduced_to: 73
  - symbol: Li # 86
    coordinates: [  0.444444444444444,  0.555555555555555,  0.375000000000000 ]
    mass: 6.940000
    reduced_to: 73
  - symbol: Li # 87
    coordinates: [  0.777777777777778,  0.555555555555555,  0.375000000000000 ]
    mass: 6.940000
    reduced_to: 73
  - symbol: Li # 88
    coordinates: [  0.111111111111111,  0.888888888888889,  0.375000000000000 ]
    mass: 6.940000
    reduced_to: 73
  - symbol: Li # 89
    coordinates: [  0.444444444444444,  0.888888888888889,  0.375000000000000 ]
    mass: 6.940000
    reduced_to: 73
  - symbol: Li # 90
    coordinates: [  0.777777777777778,  0.888888888888889,  0.375000000000000 ]
    mass: 6.940000
    reduced_to: 73
  - symbol: Li # 91
    coordinates: [  0.111111111111111,  0.222222222222222,  0.625000000000000 ]
    mass: 6.940000
    reduced_to: 73
  - symbol: Li # 92
    coordinates: [  0.444444444444444,  0.222222222222222,  0.625000000000000 ]
    mass: 6.940000
    reduced_to: 73
  - symbol: Li # 93
    coordinates: [  0.777777777777778,  0.222222222222222,  0.625000000000000 ]
    mass: 6.940000
    reduced_to: 73
  - symbol: Li # 94
    coordinates: [  0.111111111111111,  0.555555555555555,  0.625000000000000 ]
    mass: 6.940000
    reduced_to: 73
  - symbol: Li # 95
    coordinates: [  0.444444444444444,  0.555555555555555,  0.625000000000000 ]
    mass: 6.940000
    reduced_to: 73
  - symbol: Li # 96
    coordinates: [  0.777777777777778,  0.555555555555555,  0.625000000000000 ]
    mass: 6.940000
    reduced_to: 73
  - symbol: Li # 97
    coordinates: [  0.111111111111111,  0.888888888888889,  0.625000000000000 ]
    mass: 6.940000
    reduced_to: 73
  - symbol: Li # 98
    coordinates: [  0.444444444444444,  0.888888888888889,  0.625000000000000 ]
    mass: 6.940000
    reduced_to: 73
  - symbol: Li # 99
    coordinates: [  0.777777777777778,  0.888888888888889,  0.625000000000000 ]
    mass: 6.940000
    reduced_to: 73
  - symbol: Li # 100
    coordinates: [  0.111111111111111,  0.222222222222222,  0.875000000000000 ]
    mass: 6.940000
    reduced_to: 73
  - symbol: Li # 101
    coordinates: [  0.444444444444444,  0.222222222222222,  0.875000000000000 ]
    mass: 6.940000
    reduced_to: 73
  - symbol: Li # 102
    coordinates: [  0.777777777777778,  0.222222222222222,  0.875000000000000 ]
    mass: 6.940000
    reduced_to: 73
  - symbol: Li # 103
    coordinates: [  0.111111111111111,  0.555555555555555,  0.875000000000000 ]
    mass: 6.940000
    reduced_to: 73
  - symbol: Li # 104
    coordinates: [  0.444444444444444,  0.555555555555555,  0.875000000000000 ]
    mass: 6.940000
    reduced_to: 73
  - symbol: Li # 105
    coordinates: [  0.777777777777778,  0.555555555555555,  0.875000000000000 ]
    mass: 6.940000
    reduced_to: 73
  - symbol: Li # 106
    coordinates: [  0.111111111111111,  0.888888888888889,  0.875000000000000 ]
    mass: 6.940000
    reduced_to: 73
  - symbol: Li # 107
    coordinates: [  0.444444444444444,  0.888888888888889,  0.875000000000000 ]
    mass: 6.940000
    reduced_to: 73
  - symbol: Li # 108
    coordinates: [  0.777777777777778,  0.888888888888889,  0.875000000000000 ]
    mass: 6.940000
    reduced_to: 73

displacements:
- atom:    1
  displacement:
    [   0.0078646455401497,  0.0000000000000000,  0.0061763541452708 ]
  forces:
  - [  -0.0065877120941877,  0.0000001303851604, -0.0099620800465345 ]
  - [  -0.0008727484382689,  0.0000000204890966,  0.0000207363627851 ]
  - [  -0.0008338795159943, -0.0000000448198989,  0.0000176486792043 ]
  - [  -0.0001989108277485,  0.0003744093119167,  0.0000184267992154 ]
  - [  -0.0002012249606196, -0.0003813104704022,  0.0000199808273464 ]
  - [   0.0000011007650755,  0.0000001596636139,  0.0000032422831282 ]
  - [  -0.0002013963385252,  0.0003812575014308,  0.0000200229696929 ]
  - [   0.0000010857971802, -0.0000001871958375,  0.0000032379757613 ]
  - [  -0.0001992675097426, -0.0003744006389752,  0.0000183191332326 ]
  - [  -0.0003399197012186,  0.0000000698491931,  0.0031863856129348 ]
  - [   0.0000003450550139,  0.0000000677537173, -0.0000118828611448 ]
  - [   0.0000004100147635, -0.0000000210129656, -0.0000119204632938 ]
  - [  -0.0000074174422480, -0.0000036272685975, -0.0000114516587928 ]
  - [  -0.0000071285321610,  0.0000046240165830, -0.0000114873982966 ]
  - [  -0.0000011604315659, -0.0000000052968971,  0.0000001640291885 ]
  - [  -0.0000072655493568, -0.0000045801280066, -0.0000114936847240 ]
  - [  -0.0000013196635109, -0.0000000917352736,  0.0000001032603905 ]
  - [  -0.0000078571356426,  0.0000037220306695, -0.0000114666763693 ]
  - [   0.0000055928248912,  0.0000000959262252,  0.0000156885944307 ]
  - [   0.0000045131891966,  0.0000000423751771,  0.0000218985369429 ]
  - [   0.0000043942127377,  0.0000000417348929,  0.0000212695449591 ]
  - [   0.0000016511257854, -0.0000012946547940,  0.0000214645406231 ]
  - [   0.0000014192628441,  0.0000015168916434,  0.0000217722263187 ]
  - [  -0.0000026579509722,  0.0000000346917659, -0.0000032598618418 ]
  - [   0.0000012988166418, -0.0000015029218048,  0.0000217128545046 ]
  - [  -0.0000026221473490, -0.0000000628642738, -0.0000032088719308 ]
  - [   0.0000012680393411,  0.0000012624077499,  0.0000214563915506 ]
  - [  -0.0003230732399970,  0.0000000866712071,  0.0031614506151527 ]
  - [   0.0000010501244105,  0.0000000717118382, -0.0000121418852359 ]
  - [   0.0000024876790121, -0.0000000220024958, -0.0000104163773358 ]
  - [  -0.0000067440414568, -0.0000050115049817, -0.0000114259310067 ]
  - [  -0.0000072595285019,  0.0000046241329983, -0.0000121729681268 ]
  - [  -0.0000013565004338,  0.0000000569853000, -0.0000002410961315 ]
  - [  -0.0000074382805906, -0.0000046399654821, -0.0000122593482956 ]
  - [  -0.0000014009032157, -0.0000000144354999, -0.0000001883599907 ]
  - [  -0.0000071559879871,  0.0000049141235650, -0.0000113057903945 ]
  - [   0.0016851861728355,  0.0009234216995537,  0.0009796917438507 ]
  - [   0.0000208055244002,  0.0000046036439016, -0.0000021264422685 ]
  - [   0.0007217761594802, -0.0003633606247604, -0.0002769995480776 ]
  - [  -0.0000088419765234, -0.0000036061974242, -0.0000058057376009 ]
  - [   0.0000088418601081,  0.0000071229878813, -0.0000002174092515 ]
  - [   0.0000004672911018, -0.0000114816939458, -0.0000036680830817 ]
  - [  -0.0000085234642029, -0.0000000176951289, -0.0000066339925979 ]
  - [  -0.0000017751008272,  0.0000042263418436, -0.0000053477160691 ]
  - [   0.0000894386321306, -0.0005464404821396,  0.0003444999747444 ]
  - [  -0.0000824488233775, -0.0000379545381293, -0.0000919166486710 ]
  - [   0.0000077711983977,  0.0000020377337933,  0.0000019900035113 ]
  - [   0.0000333224925271, -0.0000285331625491, -0.0000166483223438 ]
  - [  -0.0000056531280279,  0.0000181077048182,  0.0000040326267481 ]
  - [   0.0000044163316488,  0.0000021373853087,  0.0000036377459764 ]
  - [   0.0000008717179298, -0.0000037848949432,  0.0000000856816769 ]
  - [   0.0000251606106758, -0.0000177687034011,  0.0000159572809935 ]
  - [  -0.0000061001628637, -0.0000002188608050, -0.0000075995922089 ]
  - [  -0.0000161509960890,  0.0000664228573442, -0.0000537727028131 ]
  - [   0.0000334070064127,  0.0000288368901238, -0.0000176317989826 ]
  - [   0.0000074575755207, -0.0000016158446670,  0.0000022165477276 ]
  - [  -0.0000814967715996,  0.0000380274141207, -0.0000904090702534 ]
  - [  -0.0000056046992540, -0.0000178785994649,  0.0000043231993914 ]
  - [   0.0000011827796698,  0.0000038649886847,  0.0000006351619959 ]
  - [   0.0000040065497160, -0.0000019194558263,  0.0000040270388126 ]
  - [  -0.0000059474259615,  0.0000001741573215, -0.0000073947012424 ]
  - [   0.0000247750431299,  0.0000174883753061,  0.0000157468020916 ]
  - [  -0.0000159442424774, -0.0000668568536639, -0.0000543724745512 ]
  - [   0.0007119429064915,  0.0003603448858485, -0.0002773477172013 ]
  - [   0.0000205340038519, -0.0000045545166358, -0.0000020390907594 ]
  - [   0.0016574549954385, -0.0009026734624058,  0.0009633093141019 ]
  - [  -0.0000087842345238,  0.0000039980513975, -0.0000064186515374 ]
  - [   0.0000006778864190,  0.0000116513110697, -0.0000040229024307 ]
  - [   0.0000085530336946, -0.0000066950451583, -0.0000004349603842 ]
  - [  -0.0000017508864403, -0.0000037550926208, -0.0000059466001403 ]
  - [  -0.0000080764293671,  0.0000006072223186, -0.0000064979958552 ]
  - [   0.0000911504030228,  0.0005556046962738,  0.0003496684075799 ]
  - [   0.0000892081079655,  0.0005464161513373,  0.0003446075133979 ]
  - [  -0.0000085929805209,  0.0000000635445758, -0.0000065960921347 ]
  - [  -0.0000024736236810, -0.0000040909308154, -0.0000053918047342 ]
  - [   0.0000090726516646, -0.0000071396934800, -0.0000001962434908 ]
  - [   0.0000008613205864,  0.0000116092705866, -0.0000036393757910 ]
  - [  -0.0000087113694462,  0.0000035466237023, -0.0000058781588450 ]
  - [   0.0016850291285664, -0.0009234839817509,  0.0009796135127544 ]
  - [   0.0000208315668715, -0.0000046250443120, -0.0000021411105990 ]
  - [   0.0007212767959572,  0.0003631313447841, -0.0002769648563117 ]
  - [  -0.0000164373486768, -0.0000664678227622, -0.0000537512823939 ]
  - [   0.0000251879464486,  0.0000177663441718,  0.0000158846378326 ]
  - [  -0.0000066479497036,  0.0000002370197763, -0.0000075511634350 ]
  - [   0.0000046357745305, -0.0000021196447051,  0.0000036042183638 ]
  - [   0.0000012120144675,  0.0000038265352487,  0.0000000989530236 ]
  - [  -0.0000055565687944, -0.0000181289633474,  0.0000040885061026 ]
  - [  -0.0000826709729154,  0.0000378107251890, -0.0000918172299862 ]
  - [   0.0000076461437857, -0.0000020522184059,  0.0000020093284547 ]
  - [   0.0000327371199091,  0.0000284232573904, -0.0000166697427630 ]
  - [  -0.0000162051837833,  0.0000668965803925, -0.0000543575733900 ]
  - [  -0.0000060074180510, -0.0000002465440048, -0.0000073723495007 ]
  - [   0.0000242015703407, -0.0000173263451870,  0.0000158045440912 ]
  - [   0.0000014861871023, -0.0000038791349652,  0.0000006128102541 ]
  - [   0.0000043933432607,  0.0000020042371034,  0.0000040289014578 ]
  - [  -0.0000055425152823,  0.0000177900838025,  0.0000043231993914 ]
  - [   0.0000332912386511, -0.0000289071904263, -0.0000177547335625 ]
  - [   0.0000073046430771,  0.0000015848472685,  0.0000022402964532 ]
  - [  -0.0000820934510557, -0.0000381436766475, -0.0000903513282537 ]
  - [   0.0000911162933335, -0.0005555729148909,  0.0003495929413475 ]
  - [  -0.0000018530990928,  0.0000039355363697, -0.0000060185993789 ]
  - [  -0.0000087147927843, -0.0000005068723112, -0.0000064564956119 ]
  - [   0.0000009695068002, -0.0000116486335173, -0.0000039549922803 ]
  - [   0.0000089349923655,  0.0000067536020651, -0.0000004731300578 ]
  - [  -0.0000087470980361, -0.0000040547456592, -0.0000063683582994 ]
  - [   0.0007117268396541, -0.0003604248631746, -0.0002772696316242 ]
  - [   0.0000203641830012,  0.0000046674394980, -0.0000020496081561 ]
  - [   0.0016569857252762,  0.0009023698512465,  0.0009633253794163 ]
- atom:   37
  displacement:
    [   0.0078646455401497,  0.0000000000000000,  0.0061763541452708 ]
  forces:
  - [   0.0016708599869162,  0.0009109319653362,  0.0009473104728386 ]
  - [   0.0006995867006481, -0.0003515994176269, -0.0002595775295049 ]
  - [   0.0000213491148315,  0.0000017524580471, -0.0000017415732145 ]
  - [  -0.0000048152433010, -0.0000022541498765, -0.0000097532756627 ]
  - [   0.0000914683259907, -0.0005713119171560,  0.0003506462089717 ]
  - [  -0.0000043282343540,  0.0000022568856366, -0.0000017778947949 ]
  - [  -0.0000090009089035, -0.0000006093177944, -0.0000058900332078 ]
  - [   0.0000036969199755, -0.0000101565383375, -0.0000071052927524 ]
  - [   0.0000059827434598,  0.0000084298662841,  0.0000031841918826 ]
  - [   0.0007083346135914,  0.0003568308893591, -0.0002611179370433 ]
  - [   0.0016985420370474, -0.0009299411904067,  0.0009625884704292 ]
  - [   0.0000214335741475, -0.0000014220131561, -0.0000022285385057 ]
  - [  -0.0000045545566536, -0.0000024393084459, -0.0000019983854145 ]
  - [   0.0000886847992660,  0.0005609085783362,  0.0003437626874074 ]
  - [  -0.0000053491894505,  0.0000017292331904, -0.0000104381470010 ]
  - [  -0.0000090517023636,  0.0000000861473382, -0.0000060334568843 ]
  - [   0.0000064139921960, -0.0000085111241788,  0.0000029848888516 ]
  - [   0.0000033424585126,  0.0000098948366940, -0.0000072953989729 ]
  - [   0.0000044670887291,  0.0000117844901979,  0.0000202334485948 ]
  - [  -0.0000531922560185,  0.0000216327607632, -0.0001285361358896 ]
  - [   0.0000084500643425, -0.0000016291742213,  0.0000023171305656 ]
  - [   0.0000003312670742, -0.0000033865217119, -0.0000153683358803 ]
  - [  -0.0000160361960297, -0.0000333462376148, -0.0000532943522558 ]
  - [   0.0000189934944501,  0.0000141642522067,  0.0000242249807343 ]
  - [  -0.0000058998084569, -0.0000107453670353,  0.0000042277388275 ]
  - [   0.0000044912653721, -0.0000021336600184,  0.0000041699968278 ]
  - [   0.0000012325763237,  0.0000036193523556,  0.0000001655425876 ]
  - [  -0.0000531486584805, -0.0000213930616155, -0.0001269791973755 ]
  - [   0.0000054143019952, -0.0000123804202303,  0.0000181609066203 ]
  - [   0.0000084147322923,  0.0000014969264157,  0.0000016485573724 ]
  - [   0.0000187514087884, -0.0000138485920615,  0.0000233632745221 ]
  - [  -0.0000162879441632,  0.0000339082907885, -0.0000551904086024 ]
  - [   0.0000007236230886,  0.0000035761040635, -0.0000160769559443 ]
  - [  -0.0000058823643485,  0.0000104771461338,  0.0000037937425077 ]
  - [   0.0000016030086272, -0.0000036796554923, -0.0000001686858013 ]
  - [   0.0000040603517846,  0.0000020400620997,  0.0000038396101445 ]
  - [  -0.0091752260923386, -0.0000305736903101, -0.0071163703687489 ]
  - [  -0.0008041603723541, -0.0000019067665562,  0.0000136003363878 ]
  - [  -0.0007697854889557,  0.0000011000083759,  0.0000115291941256 ]
  - [  -0.0001721382141113,  0.0003509471425787,  0.0000121327211673 ]
  - [  -0.0001738537102938, -0.0003556581214070,  0.0000130063963297 ]
  - [   0.0000244134571403,  0.0000003239838406, -0.0000036063211155 ]
  - [  -0.0001738090068102,  0.0003596041351557,  0.0000131942215376 ]
  - [   0.0000246781855822, -0.0000001993030310, -0.0000035097255022 ]
  - [  -0.0001720115542412, -0.0003534452989697,  0.0000119046126201 ]
  - [  -0.0002752325963229, -0.0000000055879354,  0.0035212708171457 ]
  - [  -0.0000201754628506, -0.0000078870216385, -0.0000141444616020 ]
  - [  -0.0000129116187964,  0.0000026260968298, -0.0000053830444813 ]
  - [   0.0000029560178518,  0.0000025294721127, -0.0000101979821920 ]
  - [  -0.0000045150518417, -0.0000050496309996, -0.0000084470957518 ]
  - [   0.0000009275972843,  0.0000001378357410,  0.0000009741634130 ]
  - [  -0.0000000745058060,  0.0000185444951057, -0.0000145900994539 ]
  - [   0.0000011641532183,  0.0000000605359674,  0.0000009573996067 ]
  - [  -0.0000013504177332, -0.0000103507190943, -0.0000040698796511 ]
  - [  -0.0000215051695704,  0.0000001656590030,  0.0000397730618715 ]
  - [   0.0000114550448416,  0.0000043823383749,  0.0000191852450371 ]
  - [   0.0000120280355986, -0.0000043305335566,  0.0000190120190382 ]
  - [  -0.0000001247972250, -0.0000025397166610,  0.0000191666185856 ]
  - [  -0.0000000633299351,  0.0000026077032089,  0.0000191349536180 ]
  - [  -0.0000003296881914,  0.0000000260770321,  0.0000017601996660 ]
  - [  -0.0000000614672899, -0.0000108825042844,  0.0000192206352949 ]
  - [   0.0000000745058060, -0.0000000130385160,  0.0000016707926989 ]
  - [   0.0000001434236765,  0.0000109132379293,  0.0000189319252968 ]
  - [  -0.0002569340285845, -0.0000000597210601,  0.0034872968681157 ]
  - [  -0.0000125531223603, -0.0000024015316740, -0.0000048634210543 ]
  - [  -0.0000186334691534,  0.0000078397570178, -0.0000129601357912 ]
  - [  -0.0000049397349358,  0.0000050994567573, -0.0000085661476987 ]
  - [   0.0000033600954339, -0.0000015184050426, -0.0000103815400507 ]