# Thermal properties / unit cell (natom)

unit:
  temperature:   K
  free_energy:   kJ/mol
  entropy:       J/K/mol
  heat_capacity: J/K/mol

natom: 3    
cutoff_frequency: 0.00000
num_modes: 181440
num_integrated_modes: 176635

zero_point_energy:      10.3622384

thermal_properties:
- temperature:         0.0000000
  free_energy:        10.3622384
  entropy:             0.0000000
  heat_capacity:       0.0000000
  energy:             10.3622384

- temperature:        10.0000000
  free_energy:        10.3616197
  entropy:             0.1753337
  heat_capacity:       0.3755163
  energy:             10.3633730

- temperature:        20.0000000
  free_energy:        10.3567897
  entropy:             0.9287635
  heat_capacity:       2.3816312
  energy:             10.3753649

- temperature:        30.0000000
  free_energy:        10.3400349
  entropy:             2.5676021
  heat_capacity:       6.1804849
  energy:             10.4170630

- temperature:        40.0000000
  free_energy:        10.3028520
  entropy:             4.9808892
  heat_capacity:      10.9284720
  energy:             10.5020875

- temperature:        50.0000000
  free_energy:        10.2385023
  entropy:             7.9700646
  heat_capacity:      16.0946929
  energy:             10.6370055

- temperature:        60.0000000
  free_energy:        10.1420843
  entropy:            11.3702665
  heat_capacity:      21.3589471
  energy:             10.8243003

- temperature:        70.0000000
  free_energy:        10.0101655
  entropy:            15.0507297
  heat_capacity:      26.4850450
  energy:             11.0637166

- temperature:        80.0000000
  free_energy:         9.8404894
  entropy:            18.9059944
  heat_capacity:      31.3038401
  energy:             11.3529690

- temperature:        90.0000000
  free_energy:         9.6317452
  entropy:            22.8520403
  heat_capacity:      35.7152594
  energy:             11.6884288

- temperature:       100.0000000
  free_energy:         9.3833637
  entropy:            26.8241180
  heat_capacity:      39.6784778
  energy:             12.0657755

- temperature:       110.0000000
  free_energy:         9.0953375
  entropy:            30.7742529
  heat_capacity:      43.1946048
  energy:             12.4805053

- temperature:       120.0000000
  free_energy:         8.7680668
  entropy:            34.6683059
  heat_capacity:      46.2898999
  energy:             12.9282635

- temperature:       130.0000000
  free_energy:         8.4022367
  entropy:            38.4830191
  heat_capacity:      49.0030990
  energy:             13.4050292

- temperature:       140.0000000
  free_energy:         7.9987216
  entropy:            42.2033823
  heat_capacity:      51.3771522
  energy:             13.9071951

- temperature:       150.0000000
  free_energy:         7.5585139
  entropy:            45.8204631
  heat_capacity:      53.4544112
  energy:             14.4315833

- temperature:       160.0000000
  free_energy:         7.0826721
  entropy:            49.3297079
  heat_capacity:      55.2741427
  energy:             14.9754254

- temperature:       170.0000000
  free_energy:         6.5722843
  entropy:            52.7296534
  heat_capacity:      56.8714738
  energy:             15.5363253

- temperature:       180.0000000
  free_energy:         6.0284413
  entropy:            56.0209732
  heat_capacity:      58.2771525
  energy:             16.1122165

- temperature:       190.0000000
  free_energy:         5.4522199
  entropy:            59.2057819
  heat_capacity:      59.5177376
  energy:             16.7013185

- temperature:       200.0000000
  free_energy:         4.8446706
  entropy:            62.2871329
  heat_capacity:      60.6159873
  energy:             17.3020972

- temperature:       210.0000000
  free_energy:         4.2068101
  entropy:            65.2686608
  heat_capacity:      61.5913161
  energy:             17.9132288

- temperature:       220.0000000
  free_energy:         3.5396169
  entropy:            68.1543281
  heat_capacity:      62.4602518
  energy:             18.5335691

- temperature:       230.0000000
  free_energy:         2.8440293
  entropy:            70.9482478
  heat_capacity:      63.2368584
  energy:             19.1621263

- temperature:       240.0000000
  free_energy:         2.1209440
  entropy:            73.6545610
  heat_capacity:      63.9331118
  energy:             19.7980386

- temperature:       250.0000000
  free_energy:         1.3712165
  entropy:            76.2773537
  heat_capacity:      64.5592250
  energy:             20.4405549

- temperature:       260.0000000
  free_energy:         0.5956621
  entropy:            78.8206020
  heat_capacity:      65.1239250
  energy:             21.0890186

- temperature:       270.0000000
  free_energy:        -0.2049432
  entropy:            81.2881368
  heat_capacity:      65.6346875
  energy:             21.7428538

- temperature:       280.0000000
  free_energy:        -1.0298605
  entropy:            83.6836235
  heat_capacity:      66.0979328
  energy:             22.4015540

- temperature:       290.0000000
  free_energy:        -1.8783871
  entropy:            86.0105506
  heat_capacity:      66.5191908
  energy:             23.0646725

- temperature:       300.0000000
  free_energy:        -2.7498541
  entropy:            88.2722265
  heat_capacity:      66.9032379
  energy:             23.7318139

- temperature:       310.0000000
  free_energy:        -3.6436246
  entropy:            90.4717798
  heat_capacity:      67.2542120
  energy:             24.4026271

- temperature:       320.0000000
  free_energy:        -4.5590925
  entropy:            92.6121636
  heat_capacity:      67.5757085
  energy:             25.0767999

- temperature:       330.0000000
  free_energy:        -5.4956800
  entropy:            94.6961620
  heat_capacity:      67.8708605
  energy:             25.7540535

- temperature:       340.0000000
  free_energy:        -6.4528365
  entropy:            96.7263970
  heat_capacity:      68.1424060
  energy:             26.4341385

- temperature:       350.0000000
  free_energy:        -7.4300369
  entropy:            98.7053369
  heat_capacity:      68.3927450
  energy:             27.1168310

- temperature:       360.0000000
  free_energy:        -8.4267800
  entropy:           100.6353049
  heat_capacity:      68.6239865
  energy:             27.8019297

- temperature:       370.0000000
  free_energy:        -9.4425871
  entropy:           102.5184875
  heat_capacity:      68.8379892
  energy:             28.4892533

- temperature:       380.0000000
  free_energy:       -10.4770007
  entropy:           104.3569427
  heat_capacity:      69.0363953
  energy:             29.1786376

- temperature:       390.0000000
  free_energy:       -11.5295833
  entropy:           106.1526087
  heat_capacity:      69.2206595
  energy:             29.8699341

- temperature:       400.0000000
  free_energy:       -12.5999163
  entropy:           107.9073106
  heat_capacity:      69.3920740
  energy:             30.5630079

- temperature:       410.0000000
  free_energy:       -13.6875987
  entropy:           109.6227690
  heat_capacity:      69.5517886
  energy:             31.2577365

- temperature:       420.0000000
  free_energy:       -14.7922463
  entropy:           111.3006058
  heat_capacity:      69.7008295
  energy:             31.9540081

- temperature:       430.0000000
  free_energy:       -15.9134906
  entropy:           112.9423516
  heat_capacity:      69.8401145
  energy:             32.6517206

- temperature:       440.0000000
  free_energy:       -17.0509779
  entropy:           114.5494512
  heat_capacity:      69.9704661
  energy:             33.3507807

- temperature:       450.0000000
  free_energy:       -18.2043687
  entropy:           116.1232695
  heat_capacity:      70.0926229
  energy:             34.0511026

- temperature:       460.0000000
  free_energy:       -19.3733366
  entropy:           117.6650971
  heat_capacity:      70.2072499
  energy:             34.7526080

- temperature:       470.0000000
  free_energy:       -20.5575680
  entropy:           119.1761544
  heat_capacity:      70.3149466
  energy:             35.4552245

- temperature:       480.0000000
  free_energy:       -21.7567610
  entropy:           120.6575972
  heat_capacity:      70.4162548
  energy:             36.1588857

- temperature:       490.0000000
  free_energy:       -22.9706249
  entropy:           122.1105202
  heat_capacity:      70.5116647
  energy:             36.8635300

- temperature:       500.0000000
  free_energy:       -24.1988798
  entropy:           123.5359612
  heat_capacity:      70.6016212
  energy:             37.5691008

- temperature:       510.0000000
  free_energy:       -25.4412558
  entropy:           124.9349047
  heat_capacity:      70.6865282
  energy:             38.2755456

- temperature:       520.0000000
  free_energy:       -26.6974927
  entropy:           126.3082855
  heat_capacity:      70.7667533
  energy:             38.9828157

- temperature:       530.0000000
  free_energy:       -27.9673393
  entropy:           127.6569914
  heat_capacity:      70.8426315
  energy:             39.6908662

- temperature:       540.0000000
  free_energy:       -29.2505531
  entropy:           128.9818667
  heat_capacity:      70.9144687
  energy:             40.3996549

- temperature:       550.0000000
  free_energy:       -30.5468999
  entropy:           130.2837143
  heat_capacity:      70.9825446
  energy:             41.1091430

- temperature:       560.0000000
  free_energy:       -31.8561532
  entropy:           131.5632987
  heat_capacity:      71.0471152
  energy:             41.8192941

- temperature:       570.0000000
  free_energy:       -33.1780941
  entropy:           132.8213482
  heat_capacity:      71.1084154
  energy:             42.5300744

- temperature:       580.0000000
  free_energy:       -34.5125107
  entropy:           134.0585568
  heat_capacity:      71.1666607
  energy:             43.2414522

- temperature:       590.0000000
  free_energy:       -35.8591979
  entropy:           135.2755865
  heat_capacity:      71.2220494
  energy:             43.9533981

- temperature:       600.0000000
  free_energy:       -37.2179572
  entropy:           136.4730693
  heat_capacity:      71.2747641
  energy:             44.6658843

- temperature:       610.0000000
  free_energy:       -38.5885962
  entropy:           137.6516085
  heat_capacity:      71.3249730
  energy:             45.3788850

- temperature:       620.0000000
  free_energy:       -39.9709282
  entropy:           138.8117809
  heat_capacity:      71.3728316
  energy:             46.0923759

- temperature:       630.0000000
  free_energy:       -41.3647724
  entropy:           139.9541377
  heat_capacity:      71.4184833
  energy:             46.8063343

- temperature:       640.0000000
  free_energy:       -42.7699533
  entropy:           141.0792063
  heat_capacity:      71.4620610
  energy:             47.5207387

- temperature:       650.0000000
  free_energy:       -44.1863006
  entropy:           142.1874917
  heat_capacity:      71.5036878
  energy:             48.2355690

- temperature:       660.0000000
  free_energy:       -45.6136488
  entropy:           143.2794775
  heat_capacity:      71.5434777
  energy:             48.9508063

- temperature:       670.0000000
  free_energy:       -47.0518374
  entropy:           144.3556271
  heat_capacity:      71.5815367
  energy:             49.6664328

- temperature:       680.0000000
  free_energy:       -48.5007101
  entropy:           145.4163849
  heat_capacity:      71.6179632
  energy:             50.3824316

- temperature:       690.0000000
  free_energy:       -49.9601152
  entropy:           146.4621770
  heat_capacity:      71.6528488
  energy:             51.0987869

- temperature:       700.0000000
  free_energy:       -51.4299051
  entropy:           147.4934126
  heat_capacity:      71.6862788
  energy:             51.8154838

- temperature:       710.0000000
  free_energy:       -52.9099362
  entropy:           148.5104847
  heat_capacity:      71.7183327
  energy:             52.5325079

- temperature:       720.0000000
  free_energy:       -54.4000688
  entropy:           149.5137707
  heat_capacity:      71.7490846
  energy:             53.2498461

- temperature:       730.0000000
  free_energy:       -55.9001669
  entropy:           150.5036334
  heat_capacity:      71.7786037
  energy:             53.9674855

- temperature:       740.0000000
  free_energy:       -57.4100979
  entropy:           151.4804219
  heat_capacity:      71.8069549
  energy:             54.6854142

- temperature:       750.0000000
  free_energy:       -58.9297329
  entropy:           152.4444717
  heat_capacity:      71.8341987
  energy:             55.4036209

- temperature:       760.0000000
  free_energy:       -60.4589460
  entropy:           153.3961062
  heat_capacity:      71.8603917
  energy:             56.1220947

- temperature:       770.0000000
  free_energy:       -61.9976146
  entropy:           154.3356365
  heat_capacity:      71.8855871
  energy:             56.8408254

- temperature:       780.0000000
  free_energy:       -63.5456194
  entropy:           155.2633624
  heat_capacity:      71.9098348
  energy:             57.5598033

- temperature:       790.0000000
  free_energy:       -65.1028435
  entropy:           156.1795729
  heat_capacity:      71.9331814
  energy:             58.2790191

- temperature:       800.0000000
  free_energy:       -66.6691734
  entropy:           157.0845468
  heat_capacity:      71.9556710
  energy:             58.9984641

- temperature:       810.0000000
  free_energy:       -68.2444979
  entropy:           157.9785527
  heat_capacity:      71.9773447
  energy:             59.7181298

- temperature:       820.0000000
  free_energy:       -69.8287087
  entropy:           158.8618501
  heat_capacity:      71.9982416
  energy:             60.4380084

- temperature:       830.0000000
  free_energy:       -71.4217000
  entropy:           159.7346894
  heat_capacity:      72.0183980
  energy:             61.1580922

- temperature:       840.0000000
  free_energy:       -73.0233685
  entropy:           160.5973124
  heat_capacity:      72.0378485
  energy:             61.8783740

- temperature:       850.0000000
  free_energy:       -74.6336130
  entropy:           161.4499528
  heat_capacity:      72.0566256
  energy:             62.5988469

- temperature:       860.0000000
  free_energy:       -76.2523350
  entropy:           162.2928365
  heat_capacity:      72.0747599
  energy:             63.3195044

- temperature:       870.0000000
  free_energy:       -77.8794379
  entropy:           163.1261816
  heat_capacity:      72.0922802
  energy:             64.0403401

- temperature:       880.0000000
  free_energy:       -79.5148275
  entropy:           163.9501995
  heat_capacity:      72.1092140
  energy:             64.7613480

- temperature:       890.0000000
  free_energy:       -81.1584115
  entropy:           164.7650944
  heat_capacity:      72.1255870
  energy:             65.4825225

- temperature:       900.0000000
  free_energy:       -82.8100997
  entropy:           165.5710640
  heat_capacity:      72.1414237
  energy:             66.2038580

- temperature:       910.0000000
  free_energy:       -84.4698037
  entropy:           166.3682999
  heat_capacity:      72.1567471
  energy:             66.9253492

- temperature:       920.0000000
  free_energy:       -86.1374372
  entropy:           167.1569874
  heat_capacity:      72.1715792
  energy:             67.6469913

- temperature:       930.0000000
  free_energy:       -87.8129155
  entropy:           167.9373062
  heat_capacity:      72.1859406
  energy:             68.3687792

- temperature:       940.0000000
  free_energy:       -89.4961560
  entropy:           168.7094304
  heat_capacity:      72.1998510
  energy:             69.0907086

- temperature:       950.0000000
  free_energy:       -91.1870774
  entropy:           169.4735287
  heat_capacity:      72.2133291
  energy:             69.8127748

- temperature:       960.0000000
  free_energy:       -92.8856003
  entropy:           170.2297647
  heat_capacity:      72.2263925
  energy:             70.5349738

- temperature:       970.0000000
  free_energy:       -94.5916470
  entropy:           170.9782973
  heat_capacity:      72.2390581
  energy:             71.2573014

- temperature:       980.0000000
  free_energy:       -96.3051411
  entropy:           171.7192804
  heat_capacity:      72.2513418
  energy:             71.9797537

- temperature:       990.0000000
  free_energy:       -98.0260080
  entropy:           172.4528636
  heat_capacity:      72.2632587
  energy:             72.7023270

- temperature:      1000.0000000
  free_energy:       -99.7541742
  entropy:           173.1791919
  heat_capacity:      72.2748232
  energy:             73.4250177
