# Tetrahedron method
       -4.5295269641        0.0000000000
       -4.4481243201        0.0000000000
       -4.3667216761        0.0000000000
       -4.2853190321        0.0000000000
       -4.2039163881        0.0000000000
       -4.1225137441        0.0000000000
       -4.0411111001        0.0000000000
       -3.9597084561        0.0000000000
       -3.8783058121        0.0000000000
       -3.7969031681        0.0000000000
       -3.7155005241        0.0000000000
       -3.6340978801        0.0000000000
       -3.5526952360        0.0000000000
       -3.4712925920        0.0000000000
       -3.3898899480        0.0000000000
       -3.3084873040        0.0000000000
       -3.2270846600        0.0000000000
       -3.1456820160        0.0048531079
       -3.0642793720        0.0220371905
       -2.9828767280        0.0305384356
       -2.9014740840        0.0358726232
       -2.8200714400        0.0411466983
       -2.7386687960        0.0463069098
       -2.6572661520        0.0515514474
       -2.5758635080        0.0563827172
       -2.4944608640        0.0765270342
       -2.4130582200        0.0868431901
       -2.3316555760        0.0957734877
       -2.2502529320        0.1014616903
       -2.1688502880        0.1087517443
       -2.0874476440        0.1165791623
       -2.0060450000        0.1234177293
       -1.9246423560        0.1377321579
       -1.8432397120        0.1399043787
       -1.7618370680        0.1304099352
       -1.6804344240        0.1236081687
       -1.5990317800        0.1182638878
       -1.5176291360        0.1111897976
       -1.4362264920        0.1041099596
       -1.3548238480        0.0968162072
       -1.2734212040        0.0893511225
       -1.1920185600        0.0816330653
       -1.1106159160        0.0746601748
       -1.0292132720        0.0686328128
       -0.9478106280        0.0638138758
       -0.8664079840        0.0597969619
       -0.7850053400        0.0563132569
       -0.7036026960        0.0540573476
       -0.6222000520        0.0524572498
       -0.5407974080        0.0513490640
       -0.4593947640        0.0507883467
       -0.3779921200        0.0504916008
       -0.2965894760        0.0503655238
       -0.2151868320        0.0504374793
       -0.1337841879        0.0505838406
       -0.0523815439        0.0508064309
        0.0290211001        0.0511412881
        0.1104237441        0.0519548787
        0.1918263881        0.0532863947
        0.2732290321        0.0558980562
        0.3546316761        0.0598657535
        0.4360343201        0.0642360659
        0.5174369641        0.0700400559
        0.5988396081        0.0776416821
        0.6802422521        0.0863928374
        0.7616448961        0.0970202912
        0.8430475401        0.1087804656
        0.9244501841        0.1226155197
        1.0058528281        0.1364767583
        1.0872554721        0.1553758712
        1.1686581161        0.1787730258
        1.2500607601        0.2071464829
        1.3314634041        0.2414292574
        1.4128660481        0.2797211721
        1.4942686921        0.3250514314
        1.5756713361        0.3774520858
        1.6570739801        0.4514255967
        1.7384766241        0.5265280033
        1.8198792681        0.5799864348
        1.9012819121        0.6455367768
        1.9826845561        0.7335853344
        2.0640872001        0.7877211782
        2.1454898441        0.9313681921
        2.2268924881        0.8857515916
        2.3082951321        0.8494208301
        2.3896977761        0.8319894977
        2.4711004201        0.8793180150
        2.5525030641        0.9543404152
        2.6339057081        1.0592502181
        2.7153083521        1.0075105435
        2.7967109961        0.8500923357
        2.8781136401        0.9364672906
        2.9595162841        0.9437323756
        3.0409189281        0.9431169714
        3.1223215721        0.9798071356
        3.2037242161        1.0078899834
        3.2851268602        1.0206350479
        3.3665295042        1.1879399291
        3.4479321482        1.0952089857
        3.5293347922        1.1340988174
        3.6107374362        1.1410044866
        3.6921400802        1.1068458179
        3.7735427242        1.0199294339
        3.8549453682        0.9371510134
        3.9363480122        0.8103421206
        4.0177506562        0.8126300098
        4.0991533002        0.8801861037
        4.1805559442        0.8955250664
        4.2619585882        0.9372409039
        4.3433612322        0.8862085867
        4.4247638762        0.9136867353
        4.5061665202        0.8219783923
        4.5875691642        0.8574965311
        4.6689718082        1.1400133191
        4.7503744522        1.1244245674
        4.8317770962        1.0403136785
        4.9131797402        1.1918099376
        4.9945823842        1.1865461977
        5.0759850282        1.0926913657
        5.1573876722        1.1109601644
        5.2387903162        1.1865066863
        5.3201929602        1.2003553171
        5.4015956042        1.2414172475
        5.4829982482        1.2586733993
        5.5644008922        1.1543432706
        5.6458035362        1.0553052241
        5.7272061802        1.0003056135
        5.8086088242        0.9739176979
        5.8900114682        0.9552759898
        5.9714141122        0.9434553036
        6.0528167562        0.9285028186
        6.1342194002        0.9318711137
        6.2156220442        1.0206711384
        6.2970246882        1.0726712446
        6.3784273322        1.0120191072
        6.4598299762        0.9694022851
        6.5412326202        0.9319616315
        6.6226352642        0.9263629962
        6.7040379083        0.9315368034
        6.7854405523        0.8998549881
        6.8668431963        0.8951802473
        6.9482458403        0.8485240790
        7.0296484843        0.8417466795
        7.1110511283        0.8801413645
        7.1924537723        0.8737615054
        7.2738564163        0.9217497109
        7.3552590603        0.9214992946
        7.4366617043        0.9177496802
        7.5180643483        0.8859709931
        7.5994669923        0.8849954448
        7.6808696363        0.8879207290
        7.7622722803        0.8987861953
        7.8436749243        0.9346897383
        7.9250775683        0.9452907434
        8.0064802123        0.9352167005
        8.0878828563        0.9062932380
        8.1692855003        0.9224225892
        8.2506881443        0.9641944894
        8.3320907883        1.0030879525
        8.4134934323        1.0568761985
        8.4948960763        1.1106115669
        8.5762987203        1.2040177588
        8.6577013643        1.3023693434
        8.7391040083        1.4635471442
        8.8205066523        1.6134656748
        8.9019092963        1.9864928329
        8.9833119403        2.4153423622
        9.0647145843        1.5702455249
        9.1461172283        1.4126242798
        9.2275198723        2.1845528433
        9.3089225163        1.8368424789
        9.3903251603        1.4109198803
        9.4717278043        1.0871669791
        9.5531304483        0.9748451634
        9.6345330923        0.7962364867
        9.7159357363        0.5710459888
        9.7973383803        0.3751324270
        9.8787410243        0.3725514055
        9.9601436683        0.3654451708
       10.0415463123        0.3465917787
       10.1229489563        0.2465041664
       10.2043516004        0.1924813262
       10.2857542444        0.1353049077
       10.3671568884        0.0647765744
       10.4485595324        0.0000000000
       10.5299621764        0.0000000000
       10.6113648204        0.0000000000
       10.6927674644        0.0000000000
       10.7741701084        0.0000000000
       10.8555727524        0.0000000000
       10.9369753964        0.0000000000
       11.0183780404        0.0000000000
       11.0997806844        0.0000000000
       11.1811833284        0.0000000000
       11.2625859724        0.0000000000
       11.3439886164        0.0000000000
       11.4253912604        0.0000000000
       11.5067939044        0.0000000000
       11.5881965484        0.0000000000
       11.6695991924        0.0000000000
       11.7510018364        0.0000000000
