3
Lattice="3.9629359806590028 0.0021164552408874113 2.283412727017371 1.3155087226547453 3.7380010450571364 2.284594799593275 0.0018115982160570054 0.001119718415489634 4.575741215907616" Properties=species:S:1:pos:R:3:forces:R:3 structure_index=0 total_energy=-9.25953197479248 stress="0.090241439640522 -0.012125342153012753 -0.008646458387374878 -0.0121254688128829 0.09635656327009201 -0.00393629539757967 -0.00864663626998663 -0.003936240915209055 0.08574123680591583" pbc="T T T"
Li       2.34280334       2.32904575       2.92690703       0.00031035       0.00006491       0.00112298
Ga       3.66609454       0.46070429       5.21234810       0.00044570       0.00037624       0.00347353
Sn       1.02375755       1.39425702       5.21628162      -0.00075605      -0.00044115      -0.00459652
8
Lattice="6.118191795653701 0.03672818172271792 -1.1104009696098711 -3.3378083570666184 4.727567878959009 -2.2743360098907925 0.1645590821770478 -0.07366773849088737 6.2190446761919596" Properties=species:S:1:pos:R:3:forces:R:3 structure_index=1 total_energy=-26.126514434814453 stress="-0.026681123301386833 0.023712655529379845 -0.010360201820731163 0.02371266856789589 0.009050126187503338 -0.00721350871026516 -0.01036023534834385 -0.007213518023490906 0.0067331246100366116" pbc="T T T"
Li      -1.67536074       3.89335314       3.20954162       0.00789358      -0.01123287      -0.00848855
Li       1.04197556       4.32680866      -0.13948470      -0.00718555       0.01051495       0.00963694
Ga       3.05259598       1.54114408       3.79308082      -0.01962834       0.03674169       0.02276937
Ga      -0.34724440       1.95235282       1.55234124       0.01999560      -0.03780089      -0.02423813
Sn       1.45941983       4.09834040       2.97736581      -0.01652004       0.00028923      -0.01253936
Sn       0.06731917       1.71541828       4.66780053      -0.01865719       0.00165109      -0.01457512
Sn      -2.09316866       4.12221526       0.09266976       0.01777142      -0.00034631       0.01425432
Sn       2.63904713       1.77611481       0.67781143       0.01633052       0.00018312       0.01318052
8
Lattice="3.9349202608742804 -0.0007489038134616319 -0.00023881563917081363 0.0008048447189388266 4.3177850820991885 0.0010080590964747613 0.0004608120358022612 -0.0024163748558826653 8.003826368182402" Properties=species:S:1:pos:R:3:forces:R:3 structure_index=2 total_energy=-22.74692726135254 stress="-0.04651164636015892 -7.900441414676607e-05 -1.5373932910733856e-05 -7.896080205682665e-05 -0.012383849360048771 -0.000615981116425246 -1.5252137018251233e-05 -0.000615998636931181 0.03030625358223915" pbc="T T T"
Li       0.43611522       1.42281455       2.34049836      -0.00024647      -0.00045451       0.04080785
Li       2.40365099       1.42097790       4.41625427      -0.00059333       0.00032216      -0.00182706
Li       0.43623371       1.42158488       6.48824519       0.00001091      -0.00105752      -0.03720292
Li       2.40348526       1.42328331       0.41098637      -0.00035041      -0.00077911       0.00414712
Ga       0.43622557       3.58266338       0.41510184       0.00028578      -0.00071237      -0.00608268
Ga       2.40403876       3.57923688       6.55045805      -0.00020043       0.00154930      -0.00464541
Ga       2.40381466       3.58129837       2.28052064      -0.00018286       0.00014125       0.00769662
Sn       0.43619298       3.58032660       4.41596608       0.00127683       0.00099081      -0.00289351
4
Lattice="4.278948489026594 0.0003829207799607251 -0.0005460621368834556 -0.0011544377720188667 4.27958183086623 -0.001151663500935626 0.0003288799668435887 0.0006894835372777429 4.3593026459465865" Properties=species:S:1:pos:R:3:forces:R:3 structure_index=3 total_energy=-12.158653259277344 stress="0.03945935145020485 -0.002296287100762129 -0.0011101620038971305 -0.002296354388818145 0.04404899850487709 -0.0023542277049273252 -0.001110198674723506 -0.002354228403419256 0.06319095939397812" pbc="T T T"
Li       2.04711913       0.43980186       0.61415348      -0.00017208      -0.00003156      -0.00041556
Ga       4.18658297       0.44049207       2.79286549       0.00135425      -0.00038851       0.00042882
Ga       2.04823581       2.58020036       2.79281401      -0.00329438      -0.00020575      -0.00019221
Sn       4.18616483       2.57963928       0.61262362       0.00211219       0.00062582       0.00017895
9
Lattice="4.504686743870478 -0.0026974665656740704 1.4672778336455812 2.277043642207747 5.114651556106601 0.6717658430474251 0.058956843680069995 0.0010664607343110206 7.471899324708965" Properties=species:S:1:pos:R:3:forces:R:3 structure_index=4 total_energy=-26.863412857055664 stress="0.020036853849887848 -8.928247552830726e-05 0.00022951597929932177 -8.934675133787096e-05 -0.031327757984399796 -0.020199958235025406 0.00022954029554966837 -0.020199963822960854 0.04189804941415787" pbc="T T T"
Li       2.01241380       0.21900649       5.23967693       0.00073126      -0.00124454      -0.00161799
Li       1.31178844       1.99998495       7.39526490      -0.00439414       0.00741127       0.01393168
Li       4.99067337       3.55140634       3.75302507       0.00412699      -0.00706090      -0.01140559
Ga       3.44638936       3.78050850       8.49668064      -0.00076493       0.00193961      -0.00744891
Ga       2.13126979       3.24335304       4.88159175       0.01687993      -0.01450547      -0.03337557
Ga       2.85576040       1.77047634       2.65421757       0.00118554      -0.00238841       0.00551540
Ga       4.17176325       2.30821794       6.26849211      -0.01713748       0.01472538       0.03329343
Sn       3.64863883       0.01210830       7.86166597       0.00120362       0.01511120       0.01009418
Sn       0.37690721       0.42417909       2.61612898      -0.00183081      -0.01398813      -0.00898664
20
Lattice="4.430083422992082 -0.0021873167072384947 0.0007375751864318825 -2.21194896149608 6.791450849158099 -0.3284697822568073 -0.0017588771020794246 0.03486760645575603 11.213816957211115" Properties=species:S:1:pos:R:3:forces:R:3 structure_index=5 total_energy=-53.9947509765625 stress="-0.012956214137375355 -2.3668948415433988e-05 -1.1106773854407948e-05 -2.3786149540683255e-05 -0.014540845528244972 -0.0006934930570423603 -1.1095661648141686e-05 -0.0006933868862688541 -0.01294800080358982" pbc="T T T"
Li       2.63301977       4.84411000       4.60964755      -0.00042463      -0.01099560       0.01524517
Li       2.63132515       2.05794289       2.40503011       0.00055665       0.00224615       0.01238236
Li       2.63199287       4.96695588       7.47472801      -0.00005980       0.02405101      -0.00042471
Li       0.41666536       3.52805994       6.34222591       0.00032183       0.00295961       0.01453117
Li       0.41589938       0.76598971       1.42360928      -0.00004501      -0.00446337      -0.02355018
Li       0.41913629       6.15880649       2.80609395      -0.00059347      -0.01462009      -0.01414929
Li       2.63146167       4.99350649      10.36388066      -0.00036969       0.01055163       0.01724337
Li       2.63034580       2.35539774       8.22488918       0.00076589       0.01145407      -0.01334451
Li       0.41757357       3.62286094       0.70106187      -0.00014098      -0.01885020       0.02738737
Li       2.63343283       4.86530058       1.88007595      -0.00004312      -0.02238768       0.01492948
Li       0.41723625       6.47021568       8.39213252       0.00050668       0.00787775       0.00762769
Li       2.63217564       2.01205332       5.14357262      -0.00099943      -0.01632977       0.02018126
Li       0.41464473       1.04574496       9.97721839      -0.00019654      -0.00429816      -0.04654248
Ga       0.41833144       6.08003632       5.59671149      -0.00030719       0.00097274      -0.03562926
Ga       2.62994960       2.23203709      10.98306996       0.00041820       0.01014469      -0.00900918
Ga       0.41838328       6.37850070       0.03467723       0.00065921       0.00896618      -0.00888491
Ga       0.41650843       0.58323595       4.08174098       0.00000561       0.00154552      -0.00671765
Sn       0.41715352       3.41368986       3.49778839       0.00016657       0.00655878       0.02176501
Sn       0.41552794       0.80536341       7.02156234      -0.00029120       0.00818180      -0.00875064
Sn       0.41596037       3.83176514       9.14909952       0.00007039      -0.00356499       0.01571001
20
Lattice="4.766884938651983 6.823209341160229e-05 0.0016350466737129544 -0.0002950470713287732 6.020026962062733 0.689690400663828 -0.004602603957382701 -0.04266907401363811 13.040822364745374" Properties=species:S:1:pos:R:3:forces:R:3 structure_index=6 total_energy=-58.55116653442383 stress="0.009956391528248787 2.36992468671815e-06 -6.1324690250330605e-06 2.4321022920048563e-06 0.018563134595751762 0.0012271953746676445 -6.045579993951833e-06 0.0012270103907212615 0.004889931995421648" pbc="T T T"
Li       1.07493632       2.28943796       2.26248000       0.00048230      -0.00307016       0.00562141
Li       1.07505368       2.88361367      10.03808950      -0.00170159       0.00539416       0.00864657
Li       1.07444213       5.92547496      10.41671244      -0.00115983      -0.00974211       0.02012637
Li       3.45669776       5.71323112      12.08084504      -0.00074972       0.00189368      -0.01995836
Li       3.45899881       0.83633658       1.32028257      -0.00000103      -0.02258400       0.00019113
Li       3.45862014       0.26854712       6.21296759      -0.00132858       0.01301078      -0.00267658
Li       1.07411068       0.48498941       4.59750091       0.00084219       0.00810702       0.03222176
Li       3.45900162       3.91208651       1.66148068      -0.00009499       0.01680550      -0.00100307
Li       1.07396329       3.50929840       4.95160251       0.00074588      -0.02411874       0.04006125
Li       3.45847424       3.34113163       6.60294319      -0.00131685      -0.01294825      -0.00784048
Ga       3.45766665       1.47448006       9.06758771       0.00079668       0.00608793       0.01002829
Ga       3.45649201       2.66164882      11.73483192       0.00029799       0.01428307      -0.03493856
Ga       1.07457188       4.71863477       7.60215562       0.00076486      -0.01034376      -0.00055698
Ga       3.45712557       5.09676861       4.30497895       0.00030696       0.00624997      -0.03920949
Ga       1.07426635       5.27328843       2.74346207       0.00086733      -0.00066511      -0.00035507
Sn       1.07229512       1.03710445      12.55753709       0.00037951       0.01625785       0.03103068
Sn       1.07460232       1.68123479       7.37286395       0.00021827       0.01634429      -0.02566237
Sn       3.45797718       4.52908457       9.33967929       0.00002646      -0.01042082       0.00340897
Sn       3.45766636       2.10089420       3.91667069       0.00044600       0.00061107      -0.02388284
Sn       1.07233611       4.08144684      12.91723404       0.00017816      -0.01115241       0.00474735
12
Lattice="4.400624965359553 0.013287488568172339 -0.0008610142828373225 -0.01585320296114534 4.401269590056453 0.0006051809086258412 0.0018858918610164814 -0.001340697254833665 10.764799263354412" Properties=species:S:1:pos:R:3:forces:R:3 structure_index=7 total_energy=-33.3228645324707 stress="0.0173726174980402 -0.007375990506261587 0.0001759621809469536 -0.007375930901616812 0.025619424879550934 -0.00010506893886486068 0.00017625308828428388 -0.00010522799857426435 -0.029212554916739464" pbc="T T T"
Li       4.11935815       3.34587536       3.14790306       0.00089462      -0.00039392      -0.00616084
Li       1.92861870       1.13881138       3.14816422       0.00014986      -0.00009657      -0.00672111
Li       1.91962552       3.33910659       4.82422247       0.00053038       0.00003873      -0.01446390
Li       4.13095409       1.14452303       1.48907887      -0.00209183       0.00078726       0.01746525
Li       4.13091728       1.14412672       8.67807518      -0.00033315      -0.00002960      -0.01537063
Li       1.92858903       1.13807229       6.61556222       0.00065710       0.00001366      -0.00463787
Li       4.12085207       3.34570769       6.61571246       0.00050375      -0.00057619      -0.00551255
Ga       4.12149372       3.34415970      10.58661652       0.00048454       0.00030871       0.02003181
Ga       1.93177283       1.13773850      10.58685705      -0.00065826      -0.00026827       0.01966747
Ga       1.91902410       3.33963988       1.56039087       0.00074672      -0.00022033       0.02368065
Sn       4.12866395       1.14518424       4.85490880       0.00059124      -0.00044621       0.01373307
Sn       1.92189396       3.33815227       8.50836519      -0.00147495       0.00088270      -0.04171136
11
Lattice="4.4721062557029105 0.002936213699286709 -0.0018648646990803504 -0.0034848524265733696 4.430546500200568 -0.8042889345740081 0.014110764211179858 0.0007140466814625539 12.615868446474684" Properties=species:S:1:pos:R:3:forces:R:3 structure_index=8 total_energy=-34.14031982421875 stress="0.01740831509232521 -0.0006688155699521303 -0.0011080953991040587 -0.0006688427529297769 0.007802858483046293 0.0007825484499335289 -0.001107862452045083 0.0007824433851055801 0.006225316785275936" pbc="T T T"
Li       0.92110662       0.70675994       5.77724432       0.00139987       0.00011189       0.00319716
Li       3.15337369       4.32729438       0.51280839      -0.00010330       0.00943744       0.02963063
Li       3.16043097       1.10199922       7.93004752      -0.00138274      -0.00604242      -0.01443173
Ga       0.92097811       0.18731333       2.91278841       0.00053838      -0.00353367      -0.03703393
Ga       0.92903327       1.46972901       9.97337356      -0.00229014      -0.00780736      -0.02558407
Ga       3.16870463       1.80534436      11.82574288       0.00268346      -0.00448063       0.01468166
Ga       3.15732696       0.40189811       4.11717111      -0.00035409       0.01138189       0.04704324
Sn       3.15627276       2.92250171       5.38973618      -0.00018343      -0.00306738      -0.02606641
Sn       3.16107557       3.71776303       9.76478426      -0.00170901       0.00656006      -0.01224625
Sn       0.92104404       3.30400160       7.47280994       0.00193930       0.00172364       0.00017822
Sn       0.91926846       2.10545439       0.86754494      -0.00053831      -0.00428347       0.02063141
10
Lattice="4.421059111583091 0.000124708804215391 -1.15983003590357 0.0008468453700620287 6.0772995176743425 0.004015124045860971 -0.023500475643169975 -0.00018685067708567842 8.927861003315419" Properties=species:S:1:pos:R:3:forces:R:3 structure_index=9 total_energy=-32.28868865966797 stress="-0.014713572338223457 -3.06360270769801e-05 -0.001603175071068108 -3.058299989788793e-05 -0.005360899027436972 -9.075804700842127e-05 -0.0016031800769269466 -9.073284309124574e-05 -0.01976669579744339" pbc="T T T"
Li       0.34711150       2.72533610       8.71858921       0.00049353       0.00032654       0.00303859
Li       0.34550724       5.69184922       8.71372413       0.00134729      -0.00153025       0.00513897
Ga       2.22097392       4.20729071       6.84942421       0.00548565       0.00167001       0.02184208
Ga       2.93641880       4.20795380       0.56991157       0.00713807      -0.00036165       0.02572539
Ga       3.96422564       1.16701027       4.48902664      -0.00711256      -0.00102045      -0.02600349
Sn       1.24177127       1.16699458       3.11814521      -0.00216099       0.00031743      -0.00839772
Sn       2.95092260       1.16814188       0.62741208      -0.00513117       0.00026385      -0.02581432
Sn       3.97793307       4.20585951       4.53883813       0.00471625      -0.00056669       0.02603600
Sn       1.21510015       4.20562237       3.01567726       0.00684914      -0.00029358       0.02250174
Sn       2.18319536       1.17104381       6.70706921      -0.01162520       0.00119480      -0.04406726
11
Lattice="4.524198151935033 0.0017291943021194025 0.0015711607539905842 -2.262018198606084 3.918263282912418 -0.0009229610359392147 -0.005047810249725716 0.0015863026821368576 11.58822960266086" Properties=species:S:1:pos:R:3:forces:R:3 structure_index=10 total_energy=-31.470924377441406 stress="0.012417110614478588 1.0508670129638631e-05 5.0268634367967024e-05 1.065450214809971e-05 0.012557298876345158 2.7349076390237315e-06 5.037757000536658e-05 2.631785719131585e-06 0.02189571224153042" pbc="T T T"
Li       0.85315014       3.27527194       3.51236666      -0.00026953       0.00010481       0.00122507
Li       3.11380416       1.97127119      11.07207224      -0.00084057      -0.00005020      -0.01253477
Li       0.84988452       3.27838164       6.68751210       0.00050564      -0.00070602       0.02450827
Li       3.11607705       1.96916064       2.33815855      -0.00005748       0.00080315      -0.00009274
Li       3.11256886       1.97268237       8.07590923       0.00013792      -0.00038232       0.00458300
Ga       0.85518903       3.27480891       0.79801267      -0.00015269       0.00008756       0.00640025
Ga       0.85092881       3.27764909       9.76749946      -0.00003446      -0.00020494       0.00529319
Ga       3.11340956       1.97086087       5.42427138       0.00004257       0.00023124       0.00955532
Ga       0.85453108       0.66208070       1.32885535       0.00071566       0.00002758      -0.00075772
Sn       0.85215011       0.66305531       4.48892497      -0.00013986       0.00050521      -0.02978260
Sn       0.85070112       0.66523966       8.79601780       0.00009284      -0.00041608      -0.00839728
4
Lattice="4.4402735926301204 0.0001330380418706435 -0.00010257703479028542 -0.00010118598064660757 4.061080704752937 -0.0002536684520674957 0.00011393610250840266 0.00017187478064390193 4.061067484822361" Properties=species:S:1:pos:R:3:forces:R:3 structure_index=11 total_energy=-11.800244331359863 stress="0.04384351894259453 6.782585114706308e-05 6.992279668338597e-05 6.773902714485303e-05 0.10028085112571716 -0.0007596755167469382 6.99067531968467e-05 -0.000759672955609858 0.10021468251943588" pbc="T T T"
Li       0.31211470       2.62932182       2.92318543      -0.00009940      -0.00006863       0.00019693
Li       0.31226031       0.59865582       0.89287998      -0.00038598       0.00003046      -0.00007884
Ga       2.53245658       0.59881196       2.92341287      -0.00013819      -0.00001494      -0.00028410
Sn       2.53207360       2.62925560       0.89267615       0.00062357       0.00005311       0.00016601
3
Lattice="3.8389031568268592 0.001958265152732852 2.217010263977581 1.2794042080359427 3.6192472768788067 2.216341968504971 0.0014904274919791164 0.0011255206442916047 4.4327207341432375" Properties=species:S:1:pos:R:3:forces:R:3 structure_index=12 total_energy=-8.93154525756836 stress="-0.07747160643339157 -0.008468592539429665 -0.007097506430000067 -0.008468611165881157 -0.0873408243060112 -0.006274666637182236 -0.007097142748534679 -0.0062744771130383015 -0.10214027017354965" pbc="T T T"
Li       3.44481766       0.65586752       3.04783424      -0.00587543      -0.00073974      -0.00450698
Ga       3.44507555       3.37097706       7.48037680      -0.00010865      -0.00059214      -0.00072981
Sn       0.88336753       1.55880617       3.04489482       0.00598408       0.00133188       0.00523679
10
Lattice="4.131638741651489 0.004095334506585566 0.0006080654993629056 -2.070853851618032 4.604251448286433 -0.5580384871223177 -0.001475752566849698 0.7213359995398636 9.013909387314639" Properties=species:S:1:pos:R:3:forces:R:3 structure_index=13 total_energy=-27.886741638183594 stress="0.017795879393815994 -0.001196053926832974 0.0017274661222472787 -0.0011961046839132905 0.0007598757511004806 -0.035605695098638535 0.0017277764854952693 -0.03560563549399376 -0.02172795869410038" pbc="T T T"
Li      -1.52755599       3.82886101       1.59653962      -0.00027092      -0.02640843      -0.00207445
Li       0.53766139       4.89130360       3.25430771      -0.00082205       0.02205668      -0.01974505
Li       2.60553369       3.09729969       4.40346119      -0.00065008       0.00981928      -0.01456407
Li       0.54023511       0.84041475       8.49526548       0.00083754       0.00971162       0.01024602
Li       2.60459623       2.56006773       7.41024158       0.00044879       0.01936466      -0.00335496
Ga       0.53766454       4.22268728       6.24741680      -0.00024203       0.00458927       0.00821941
Ga       2.60660112       1.07422576       1.14146569       0.00062711      -0.01642499      -0.01843293
Ga       0.53994892       2.06350652       2.59321281       0.00028352      -0.02063565       0.01736617
Ga       0.53874638       3.05515174      -0.09610347       0.00018618      -0.00137561       0.00473421
Sn       0.54115607       1.35150278       5.60000260      -0.00039805      -0.00069688       0.01760562
20
Lattice="4.759477075399815 -4.100155542700394e-06 -0.0011334553817531443 -0.0006024487723622195 7.680248176016665 -2.899333086959823 0.002846888499795331 0.017583647132667052 10.789344238471603" Properties=species:S:1:pos:R:3:forces:R:3 structure_index=14 total_energy=-60.04806137084961 stress="-0.0015825331211090088 2.053513890132308e-05 -6.288039003266022e-05 2.0588642655638978e-05 0.005299773067235947 -0.00048477458767592907 -6.276261410675943e-05 -0.0004846293886657804 0.012876689434051514" pbc="T T T"
Li       3.60005315       2.77449976       6.82078706      -0.00069034      -0.00341728      -0.02712670
Li       1.21880301       6.75250905       1.56855773       0.00026230       0.01243179       0.01592977
Li       1.21915390       7.09848959       4.67335804       0.00048027       0.01955107       0.01126457
Li       1.21918145       3.23727472       0.52953316      -0.00077323      -0.03257494      -0.00487378
Li       3.59899306       6.30533317       7.87213292       0.00078756       0.03591434      -0.00398946
Li       3.59944588       2.42761642       3.78136459      -0.00034021      -0.02324399      -0.02434273
Ga       1.21964600       4.61733326       6.86553953       0.00115092       0.01566750      -0.00514065
Ga       1.22044333       2.18980705       8.35147436      -0.00007351       0.02470679      -0.01852262
Ga       3.59787776       1.54460731       0.86382296       0.00101153       0.01449707       0.01774067
Ga       1.22038174       0.38421622      10.47987680      -0.00046575       0.02361640      -0.01241878
Ga       3.59904934       4.84600043       1.55047872      -0.00055881      -0.02533866       0.02208391
Ga       3.59784542       7.32527886      -0.05530548       0.00054130      -0.04256510       0.02730387
Ga       1.21973086       1.91285240       5.46309058       0.00053728      -0.00711474      -0.01113453
Ga       1.21918753       1.28056454       2.54680499      -0.00082180      -0.00607502      -0.00561352
Ga       3.59957483       0.59396157       8.82017316       0.00080495      -0.00232384       0.00433890
Sn       1.21759749       5.91186817      -1.17576554      -0.00004802      -0.04320536       0.00210088
Sn       3.59961807       0.09443327       5.79162199      -0.00071114      -0.01821681      -0.00687726
Sn       3.59799458       3.59751411      -1.24904177      -0.00033508       0.04261280       0.00698627
Sn       3.59958145       5.21176109       5.17859003      -0.00125758       0.03643373      -0.00655397
Sn       1.21941623       4.25153938       3.28721595       0.00049938      -0.02135576       0.01884520
10
Lattice="3.3053769233200354 -8.433450117694587e-05 -4.2859496444409715e-05 0.00018898736999642014 3.305454125987242 -0.000229791222521237 0.0005767284150208993 0.0012021814355294112 17.864763805558884" Properties=species:S:1:pos:R:3:forces:R:3 structure_index=15 total_energy=-30.937639236450195 stress="0.03925488516688347 0.00038489216240122914 -6.706859130645171e-05 0.00038487667916342616 0.04003297910094261 -0.00014289343380369246 -6.721995305269957e-05 -0.00014301956980489194 -0.018687065690755844" pbc="T T T"
Li       1.52816191       2.56774102      13.30722531       0.00005430       0.00019427      -0.03705696
Li       1.52769931       2.56697156       6.61990794       0.00067440       0.00003031       0.00754388
Li       1.52861283       2.56768819      10.32620984      -0.00035192       0.00006524       0.04186959
Li       1.52697644       2.56657928       2.89975504       0.00108901      -0.00007094      -0.00669250
Li       1.52726984       2.56717626      17.02641272       0.00094589       0.00050975      -0.00879743
Ga       3.18093950       0.91519559      11.81886897       0.00008381      -0.00064102      -0.00240394
Sn       3.18047341       0.91480374      15.14497447      -0.00018314      -0.00010977       0.01200709
Sn       3.18010589       0.91362495       1.05198956      -0.00105342      -0.00015978      -0.02086778
Sn       3.18108882       0.91458030       8.49192953      -0.00052594      -0.00000126      -0.00349189
Sn       3.18042672       0.91389237       4.73929944      -0.00073301       0.00018318       0.01788995
8
Lattice="5.37167671689529 0.16222736314647207 -0.015325400973787963 -2.1996474926348086 4.903473760444012 -0.015808411528767705 0.017313526201724223 0.028428654329123768 5.972964121348756" Properties=species:S:1:pos:R:3:forces:R:3 structure_index=16 total_energy=-24.243043899536133 stress="-0.009500658139586449 0.011415653862059116 1.2493853319028858e-05 0.011415722779929638 0.0021516347769647837 0.00041750355740077794 1.2451745533326175e-05 0.0004173422057647258 0.005348142236471176" pbc="T T T"
Li       0.90936067       0.05286486       4.82565291      -0.00361703       0.00163683      -0.00003361
Li       2.45351423       2.59229358       1.82333968       0.00258034      -0.00150332       0.00004101
Ga       3.57642486       0.13570544       0.33840080       0.00863603       0.01278596      -0.00060944
Ga      -0.23066562       2.47935349       0.33686751      -0.00159769      -0.01605585       0.00084698
Ga       3.58407914       0.15193558       3.32490481       0.01145309       0.00979351       0.00005238
Ga      -0.21992398       2.49354973       3.32348028      -0.00503156      -0.01506302       0.00113597
Sn      -1.28162671       4.93208029       1.82342770      -0.04282294       0.02662648      -0.00100065
Sn       2.45049068       2.61271749       4.80985351       0.03039974      -0.01822061      -0.00043265
15
Lattice="6.378964790615122 0.01873698732167452 3.4096521520990453 2.3432915903055296 5.983918205781107 3.782940530943756 -0.05300743214189222 0.18715743748693847 7.02207363963081" Properties=species:S:1:pos:R:3:forces:R:3 structure_index=17 total_energy=-41.6513786315918 stress="-0.016923341900110245 0.0009671268635429442 -0.0006078574806451797 0.0009673424647189677 -0.015347782522439957 0.001375857857055962 -0.0006074083503335714 0.0013756781117990613 -0.015815310180187225" pbc="T T T"
Li       4.39532314       5.04852806       4.68099858       0.00267071       0.02495848      -0.02007381
Li       5.99226422       5.80875272       9.47166935       0.00178851       0.02771448      -0.02150409
Li       1.90697802       4.04586843       6.19095078       0.00233833      -0.00146097       0.00881314
Li       5.39063996       2.83955141      10.20906578      -0.03064849       0.00045400      -0.00240836
Li       4.89733569       0.80898528       8.02462082      -0.00655055      -0.00666023      -0.00771295
Li       6.79543257       1.21233582       5.96614790       0.00094802      -0.01002241      -0.00742030
Ga       2.38128933       1.98680614       7.77123107       0.02672356       0.02472314       0.00674917
Ga       6.28940285       3.36781419       7.69934164       0.00524792      -0.03220855       0.01879255
Ga       1.26387619       1.20863712       5.35431995       0.00045222      -0.01667590       0.01921851
Ga       2.96498819       0.44141108       3.08411616      -0.00373981      -0.00163500      -0.01817936
Ga       4.34219863       2.63235956       5.93814455       0.02919105       0.04095720       0.00507270
Ga       3.75798520       4.48254525       8.25739128       0.02753444      -0.00271132      -0.00750412
Ga       2.74507949       3.04984255       3.61438885      -0.01091865      -0.00620268       0.02347957
Ga       7.00199847       4.05382096      12.09524844      -0.02436940      -0.02452254       0.01284587
Sn       8.02278582       5.78709275       7.35708808      -0.02066780      -0.01670768      -0.01016854
4
Lattice="4.28793698313023 0.0003475546850129768 -0.0004855910306933372 -0.0010963964252415366 4.28772034614052 -0.001329895884785775 0.0002926796954496406 0.0008019629310155065 4.345527761476929" Properties=species:S:1:pos:R:3:forces:R:3 structure_index=18 total_energy=-12.15857219696045 stress="0.08175377547740936 -0.0021747350692749023 -0.000995227019302547 -0.002174670109525323 0.08014386147260666 -0.0027163096237927675 -0.0009950840612873435 -0.002716367831453681 -0.011931458488106728" pbc="T T T"
Li       0.52074229       3.67616895       0.16195039      -0.00003743       0.00007550       0.00066156
Ga       0.52111263       1.53288954       2.33630256       0.00063523       0.00027871       0.00015860
Ga       2.66473382       3.67743367       2.33538795      -0.00008378      -0.00132179       0.00017390
Sn       2.66525401       1.53254196       0.16375716      -0.00051402       0.00096757      -0.00099405
12