# Tetrahedron method
       -1.1678735455        0.0000000000
       -1.0978011285        0.0000000000
       -1.0277287115        0.0000000000
       -0.9576562945        0.0000000000
       -0.8875838776        0.0000000000
       -0.8175114606        0.0000000000
       -0.7474390436        0.0000000000
       -0.6773666266        0.0000000000
       -0.6072942097        0.0000000000
       -0.5372217927        0.0000000000
       -0.4671493757        0.0000000000
       -0.3970769587        0.0000000000
       -0.3270045418        0.0000000000
       -0.2569321248        0.0000000000
       -0.1868597078        0.0000000000
       -0.1167872908        0.0000000000
       -0.0467148738        0.0000000000
        0.0233575431        0.0003145635
        0.0934299601        0.0050330216
        0.1635023771        0.0154136310
        0.2335747941        0.0450895374
        0.3036472110        0.0773609062
        0.3737196280        0.1253056449
        0.4437920450        0.1861737850
        0.5138644620        0.2509988254
        0.5839368789        0.3277317691
        0.6540092959        0.4179084718
        0.7240817129        0.5194514986
        0.7941541299        0.6419456266
        0.8642265469        0.7759906008
        0.9342989638        0.9378629505
        1.0043713808        1.1169268940
        1.0744437978        1.3293769184
        1.1445162148        1.5856916799
        1.2145886317        1.9751239335
        1.2846610487        2.2969039335
        1.3547334657        2.9862013763
        1.4248058827        4.1204961040
        1.4948782997        6.0598465045
        1.5649507166        9.2704398662
        1.6350231336        3.3823520033
        1.7050955506        5.5947211358
        1.7751679676       12.9085609223
        1.8452403845        7.7866044278
        1.9153128015       10.5679892077
        1.9853852185        8.3093690689
        2.0554576355       10.2431963490
        2.1255300524        8.9134516369
        2.1956024694       11.9165147190
        2.2656748864       15.9179762988
        2.3357473034       10.3643212904
        2.4058197204       13.5052205275
        2.4758921373       16.6124615931
        2.5459645543       13.0079251826
        2.6160369713        9.2073068799
        2.6861093883        8.5563505805
        2.7561818052        7.7832219362
        2.8262542222        7.2363506522
        2.8963266392        3.5779908127
        2.9663990562        0.0000000000
        3.0364714732        0.0000000000
        3.1065438901        0.0000000000
        3.1766163071        0.0000000000
        3.2466887241        0.0000000000
        3.3167611411        0.0000000000
        3.3868335580        0.0000000000
        3.4569059750        0.0000000000
        3.5269783920        0.0000000000
        3.5970508090        0.0000000000
        3.6671232259        2.1979540865
        3.7371956429        2.7886334391
        3.8072680599        3.4699711458
        3.8773404769        5.0929903872
        3.9474128939       12.4774429389
        4.0174853108       10.6824175970
        4.0875577278        5.6799214796
        4.1576301448        5.3083282850
        4.2277025618        6.6012452171
        4.2977749787        1.7020329070
        4.3678473957        5.1284727462
        4.4379198127        4.9852519752
        4.5079922297        6.8555774724
        4.5780646467        1.8170702834
        4.6481370636        0.9213180079
        4.7182094806        0.8576504774
        4.7882818976        0.8164210388
        4.8583543146        0.7692607079
        4.9284267315        0.7433769159
        4.9984991485        0.7336176744
        5.0685715655        0.7315903364
        5.1386439825        0.7416187508
        5.2087163994        2.2431293131
        5.2787888164        2.4832854772
        5.3488612334        2.2085935291
        5.4189336504        1.8493968614
        5.4890060674        2.2207085658
        5.5590784843        3.4579981250
        5.6291509013        3.3208232621
        5.6992233183        3.8905217002
        5.7692957353        3.2097223094
        5.8393681522        3.0472571113
        5.9094405692        2.7498243778
        5.9795129862        2.7329854290
        6.0495854032        3.1300928825
        6.1196578201        1.9229698631
        6.1897302371        1.0594593891
        6.2598026541        2.4620607642
        6.3298750711        1.9142062857
        6.3999474881       12.0808000980
        6.4700199050        5.5940819274
        6.5400923220        5.3594487551
        6.6101647390        5.9939474435
        6.6802371560        6.5889740908
        6.7503095729        6.7204428236
        6.8203819899        9.7606075534
        6.8904544069        9.1742071600
        6.9605268239        5.2193428354
        7.0305992409       10.1881936021
        7.1006716578        7.7718119792
        7.1707440748        8.7574734204
        7.2408164918        8.2251584560
        7.3108889088        7.3294050249
        7.3809613257        5.7880092179
        7.4510337427        4.6758516334
        7.5211061597        3.6205520133
        7.5911785767        3.2052717729
        7.6612509936        2.7918887914
        7.7313234106        4.9412325833
        7.8013958276        4.2615048427
        7.8714682446        4.8298944959
        7.9415406616        6.1653751590
        8.0116130785        6.0687810111
        8.0816854955        4.7405634166
        8.1517579125        5.2058215752
        8.2218303295        3.7869524790
        8.2919027464        3.3250307576
        8.3619751634        3.7890023311
        8.4320475804        4.0167044001
        8.5021199974        7.6718237404
        8.5721924144        7.6196521416
        8.6422648313        7.4907299602
        8.7123372483        3.8831482112
        8.7824096653        4.2527020528
        8.8524820823        4.3645625559
        8.9225544992        4.8026415168
        8.9926269162        4.5465749651
        9.0626993332        4.7690200912
        9.1327717502        3.9626614078
        9.2028441671        3.8709953033
        9.2729165841        3.3459526960
        9.3429890011        2.9466036905
        9.4130614181        2.2395592464
        9.4831338351        3.3069316209
        9.5532062520        2.1754829549
        9.6232786690        2.1237912899
        9.6933510860        3.0042087130
        9.7634235030        1.7005136546
        9.8334959199        2.4056954919
        9.9035683369        3.2088944205
        9.9736407539        5.3169233497
       10.0437131709        5.4666466737
       10.1137855878        6.0721288129
       10.1838580048        6.1745969751
       10.2539304218        7.5580276530
       10.3240028388        5.2135101634
       10.3940752558        6.0205184626
       10.4641476727       12.2914406943
       10.5342200897        6.1388481620
       10.6042925067        3.4219915281
       10.6743649237        4.0582963484
       10.7444373406        6.7271691617
       10.8145097576        5.8384051621
       10.8845821746        6.4694245185
       10.9546545916        7.4835295414
       11.0247270086        7.8936284690
       11.0947994255        6.3612521468
       11.1648718425        4.8824839951
       11.2349442595        5.0829025440
       11.3050166765        4.5203205660
       11.3750890934        9.8799001578
       11.4451615104        6.3625511081
       11.5152339274        3.7264446884
       11.5853063444        2.1972501133
       11.6553787613        1.0052367034
       11.7254511783        0.0000000000
       11.7955235953        0.0000000000
       11.8655960123        0.0000000000
       11.9356684293        0.0000000000
       12.0057408462        0.0000000000
       12.0758132632        0.0000000000
       12.1458856802        0.0000000000
       12.2159580972        0.0000000000
       12.2860305141        0.0000000000
       12.3561029311        0.0000000000
       12.4261753481        0.0000000000
       12.4962477651        0.0000000000
       12.5663201821        0.0000000000
       12.6363925990        0.0000000000
       12.7064650160        0.0000000000
       12.7765374330        0.0000000000
       12.8466098500        0.0000000000
