# Thermal properties / unit cell (natom)

unit:
  temperature:   K
  free_energy:   kJ/mol
  entropy:       J/K/mol
  heat_capacity: J/K/mol

natom: 5    
cutoff_frequency: 0.00000
num_modes: 120285
num_integrated_modes: 120279

zero_point_energy:       5.7911566

thermal_properties:
- temperature:         0.0000000
  free_energy:         5.7911566
  entropy:             0.0000000
  heat_capacity:       0.0000000
  energy:              5.7911566

- temperature:        10.0000000
  free_energy:         5.7804519
  entropy:             4.0143617
  heat_capacity:      10.0426809
  energy:              5.8205955

- temperature:        20.0000000
  free_energy:         5.6748479
  entropy:            18.4079140
  heat_capacity:      35.7306529
  energy:              6.0430062

- temperature:        30.0000000
  free_energy:         5.3950034
  entropy:            38.0045205
  heat_capacity:      61.7117660
  energy:              6.5351390

- temperature:        40.0000000
  free_energy:         4.9120655
  entropy:            58.4997393
  heat_capacity:      80.4236435
  energy:              7.2520551

- temperature:        50.0000000
  free_energy:         4.2289238
  entropy:            77.8670068
  heat_capacity:      92.7509914
  energy:              8.1222742

- temperature:        60.0000000
  free_energy:         3.3604070
  entropy:            95.5463020
  heat_capacity:     100.8857056
  energy:              9.0931851

- temperature:        70.0000000
  free_energy:         2.3236375
  entropy:           111.5384272
  heat_capacity:     106.4016327
  energy:             10.1313274

- temperature:        80.0000000
  free_energy:         1.1346989
  entropy:           126.0130980
  heat_capacity:     110.2637547
  energy:             11.2157467

- temperature:        90.0000000
  free_energy:        -0.1922332
  entropy:           139.1697809
  heat_capacity:     113.0520156
  energy:             12.3330471

- temperature:       100.0000000
  free_energy:        -1.6449224
  entropy:           151.1932600
  heat_capacity:     115.1210181
  energy:             13.4744036

- temperature:       110.0000000
  free_energy:        -3.2128539
  entropy:           162.2425036
  heat_capacity:     116.6937180
  energy:             14.6338215

- temperature:       120.0000000
  free_energy:        -4.8869714
  entropy:           172.4506803
  heat_capacity:     117.9145372
  energy:             15.8071102

- temperature:       130.0000000
  free_energy:        -6.6594348
  entropy:           181.9284489
  heat_capacity:     118.8797397
  energy:             16.9912635

- temperature:       140.0000000
  free_energy:        -8.5234139
  entropy:           190.7677759
  heat_capacity:     119.6552025
  energy:             18.1840747

- temperature:       150.0000000
  free_energy:       -10.4729194
  entropy:           199.0453987
  heat_capacity:     120.2870983
  energy:             19.3838904

- temperature:       160.0000000
  free_energy:       -12.5026653
  entropy:           206.8257164
  heat_capacity:     120.8084936
  energy:             20.5894493

- temperature:       170.0000000
  free_energy:       -14.6079582
  entropy:           214.1631257
  heat_capacity:     121.2435324
  energy:             21.7997731

- temperature:       180.0000000
  free_energy:       -16.7846064
  entropy:           221.1038821
  heat_capacity:     121.6101546
  energy:             23.0140924

- temperature:       190.0000000
  free_energy:       -19.0288463
  entropy:           227.6875786
  heat_capacity:     121.9219019
  energy:             24.2317937

- temperature:       200.0000000
  free_energy:       -21.3372820
  entropy:           233.9483214
  heat_capacity:     122.1891433
  energy:             25.4523823

- temperature:       210.0000000
  free_energy:       -23.7068351
  entropy:           239.9156682
  heat_capacity:     122.4199223
  energy:             26.6754552

- temperature:       220.0000000
  free_energy:       -26.1347036
  entropy:           245.6153817
  heat_capacity:     122.6205526
  energy:             27.9006804

- temperature:       230.0000000
  free_energy:       -28.6183262
  entropy:           251.0700381
  heat_capacity:     122.7960439
  energy:             29.1277825

- temperature:       240.0000000
  free_energy:       -31.1553540
  entropy:           256.2995207
  heat_capacity:     122.9504112
  energy:             30.3565310

- temperature:       250.0000000
  free_energy:       -33.7436249
  entropy:           261.3214246
  heat_capacity:     123.0869016
  energy:             31.5867312

- temperature:       260.0000000
  free_energy:       -36.3811429
  entropy:           266.1513891
  heat_capacity:     123.2081637
  energy:             32.8182183

- temperature:       270.0000000
  free_energy:       -39.0660596
  entropy:           270.8033728
  heat_capacity:     123.3163745
  energy:             34.0508510

- temperature:       280.0000000
  free_energy:       -41.7966589
  entropy:           275.2898829
  heat_capacity:     123.4133366
  energy:             35.2845083

- temperature:       290.0000000
  free_energy:       -44.5713433
  entropy:           279.6221676
  heat_capacity:     123.5005526
  energy:             36.5190853

- temperature:       300.0000000
  free_energy:       -47.3886221
  entropy:           283.8103774
  heat_capacity:     123.5792832
  energy:             37.7544911

- temperature:       310.0000000
  free_energy:       -50.2471013
  entropy:           287.8637019
  heat_capacity:     123.6505917
  energy:             38.9906463

- temperature:       320.0000000
  free_energy:       -53.1454744
  entropy:           291.7904864
  heat_capacity:     123.7153806
  energy:             40.2274812

- temperature:       330.0000000
  free_energy:       -56.0825147
  entropy:           295.5983314
  heat_capacity:     123.7744196
  energy:             41.4649347

- temperature:       340.0000000
  free_energy:       -59.0570678
  entropy:           299.2941778
  heat_capacity:     123.8283680
  energy:             42.7029526

- temperature:       350.0000000
  free_energy:       -62.0680461
  entropy:           302.8843804
  heat_capacity:     123.8777938
  energy:             43.9414870

- temperature:       360.0000000
  free_energy:       -65.1144228
  entropy:           306.3747718
  heat_capacity:     123.9231877
  energy:             45.1804951

- temperature:       370.0000000
  free_energy:       -68.1952268
  entropy:           309.7707177
  heat_capacity:     123.9649760
  energy:             46.4199388

- temperature:       380.0000000
  free_energy:       -71.3095388
  entropy:           313.0771649
  heat_capacity:     124.0035300
  energy:             47.6597838

- temperature:       390.0000000
  free_energy:       -74.4564870
  entropy:           316.2986838
  heat_capacity:     124.0391747
  energy:             48.8999997

- temperature:       400.0000000
  free_energy:       -77.6352435
  entropy:           319.4395053
  heat_capacity:     124.0721951
  energy:             50.1405586

- temperature:       410.0000000
  free_energy:       -80.8450213
  entropy:           322.5035534
  heat_capacity:     124.1028423
  energy:             51.3814357

- temperature:       420.0000000
  free_energy:       -84.0850709
  entropy:           325.4944741
  heat_capacity:     124.1313381
  energy:             52.6226083

- temperature:       430.0000000
  free_energy:       -87.3546783
  entropy:           328.4156610
  heat_capacity:     124.1578790
  energy:             53.8640559

- temperature:       440.0000000
  free_energy:       -90.6531622
  entropy:           331.2702776
  heat_capacity:     124.1826397
  energy:             55.1057599

- temperature:       450.0000000
  free_energy:       -93.9798718
  entropy:           334.0612780
  heat_capacity:     124.2057757
  energy:             56.3477033

- temperature:       460.0000000
  free_energy:       -97.3341850
  entropy:           336.7914248
  heat_capacity:     124.2274258
  energy:             57.5898705

- temperature:       470.0000000
  free_energy:      -100.7155061
  entropy:           339.4633051
  heat_capacity:     124.2477147
  energy:             58.8322473

- temperature:       480.0000000
  free_energy:      -104.1232649
  entropy:           342.0793449
  heat_capacity:     124.2667538
  energy:             60.0748206

- temperature:       490.0000000
  free_energy:      -107.5569145
  entropy:           344.6418225
  heat_capacity:     124.2846438
  energy:             61.3175785

- temperature:       500.0000000
  free_energy:      -111.0159300
  entropy:           347.1528799
  heat_capacity:     124.3014751
  energy:             62.5605099

- temperature:       510.0000000
  free_energy:      -114.4998074
  entropy:           349.6145337
  heat_capacity:     124.3173296
  energy:             63.8036048

- temperature:       520.0000000
  free_energy:      -118.0080623
  entropy:           352.0286844
  heat_capacity:     124.3322814
  energy:             65.0468535

- temperature:       530.0000000
  free_energy:      -121.5402288
  entropy:           354.3971252
  heat_capacity:     124.3463977
  energy:             66.2902476

- temperature:       540.0000000
  free_energy:      -125.0958581
  entropy:           356.7215501
  heat_capacity:     124.3597395
  energy:             67.5337789

- temperature:       550.0000000
  free_energy:      -128.6745184
  entropy:           359.0035607
  heat_capacity:     124.3723625
  energy:             68.7774400

- temperature:       560.0000000
  free_energy:      -132.2757930
  entropy:           361.2446731
  heat_capacity:     124.3843173
  energy:             70.0212239

- temperature:       570.0000000
  free_energy:      -135.8992803
  entropy:           363.4463238
  heat_capacity:     124.3956503
  energy:             71.2651243

- temperature:       580.0000000
  free_energy:      -139.5445925
  entropy:           365.6098750
  heat_capacity:     124.4064037
  energy:             72.5091350

- temperature:       590.0000000
  free_energy:      -143.2113551
  entropy:           367.7366198
  heat_capacity:     124.4166165
  energy:             73.7532505

- temperature:       600.0000000
  free_energy:      -146.8992063
  entropy:           369.8277866
  heat_capacity:     124.4263242
  energy:             74.9974656

- temperature:       610.0000000
  free_energy:      -150.6077962
  entropy:           371.8845437
  heat_capacity:     124.4355596
  energy:             76.2417754

- temperature:       620.0000000
  free_energy:      -154.3367862
  entropy:           373.9080025
  heat_capacity:     124.4443529
  energy:             77.4861754

- temperature:       630.0000000
  free_energy:      -158.0858488
  entropy:           375.8992221
  heat_capacity:     124.4527317
  energy:             78.7306611

- temperature:       640.0000000
  free_energy:      -161.8546666
  entropy:           377.8592113
  heat_capacity:     124.4607217
  energy:             79.9752287

- temperature:       650.0000000
  free_energy:      -165.6429321
  entropy:           379.7889330
  heat_capacity:     124.4683466
  energy:             81.2198743

- temperature:       660.0000000
  free_energy:      -169.4503474
  entropy:           381.6893059
  heat_capacity:     124.4756283
  energy:             82.4645945

- temperature:       670.0000000
  free_energy:      -173.2766233
  entropy:           383.5612077
  heat_capacity:     124.4825871
  energy:             83.7093858

- temperature:       680.0000000
  free_energy:      -177.1214794
  entropy:           385.4054774
  heat_capacity:     124.4892418
  energy:             84.9542452

- temperature:       690.0000000
  free_energy:      -180.9846435
  entropy:           387.2229176
  heat_capacity:     124.4956098
  energy:             86.1991697

- temperature:       700.0000000
  free_energy:      -184.8658509
  entropy:           389.0142963
  heat_capacity:     124.5017073
  energy:             87.4441565

- temperature:       710.0000000
  free_energy:      -188.7648450
  entropy:           390.7803493
  heat_capacity:     124.5075495
  energy:             88.6892030

- temperature:       720.0000000
  free_energy:      -192.6813758
  entropy:           392.5217813
  heat_capacity:     124.5131504
  energy:             89.9343067

- temperature:       730.0000000
  free_energy:      -196.6152008
  entropy:           394.2392685
  heat_capacity:     124.5185231
  energy:             91.1794653

- temperature:       740.0000000
  free_energy:      -200.5660836
  entropy:           395.9334595
  heat_capacity:     124.5236799
  energy:             92.4246764

- temperature:       750.0000000
  free_energy:      -204.5337944
  entropy:           397.6049767
  heat_capacity:     124.5286321
  energy:             93.6699382

- temperature:       760.0000000
  free_energy:      -208.5181095
  entropy:           399.2544184
  heat_capacity:     124.5333904
  energy:             94.9152484

- temperature:       770.0000000
  free_energy:      -212.5188111
  entropy:           400.8823590
  heat_capacity:     124.5379648
  energy:             96.1606054

- temperature:       780.0000000
  free_energy:      -216.5356869
  entropy:           402.4893513
  heat_capacity:     124.5423647
  energy:             97.4060072

- temperature:       790.0000000
  free_energy:      -220.5685301
  entropy:           404.0759268
  heat_capacity:     124.5465988
  energy:             98.6514521

- temperature:       800.0000000
  free_energy:      -224.6171391
  entropy:           405.6425971
  heat_capacity:     124.5506754
  energy:             99.8969386

- temperature:       810.0000000
  free_energy:      -228.6813173
  entropy:           407.1898548
  heat_capacity:     124.5546021
  energy:            101.1424651

- temperature:       820.0000000
  free_energy:      -232.7608730
  entropy:           408.7181746
  heat_capacity:     124.5583862
  energy:            102.3880302

- temperature:       830.0000000
  free_energy:      -236.8556192
  entropy:           410.2280139
  heat_capacity:     124.5620346
  energy:            103.6336324

- temperature:       840.0000000
  free_energy:      -240.9653732
  entropy:           411.7198138
  heat_capacity:     124.5655536
  energy:            104.8792704

- temperature:       850.0000000
  free_energy:      -245.0899568
  entropy:           413.1939998
  heat_capacity:     124.5689493
  energy:            106.1249430

- temperature:       860.0000000
  free_energy:      -249.2291958
  entropy:           414.6509824
  heat_capacity:     124.5722274
  energy:            107.3706490

- temperature:       870.0000000
  free_energy:      -253.3829204
  entropy:           416.0911582
  heat_capacity:     124.5753933
  energy:            108.6163872

- temperature:       880.0000000
  free_energy:      -257.5509643
  entropy:           417.5149100
  heat_capacity:     124.5784520
  energy:            109.8621565

- temperature:       890.0000000
  free_energy:      -261.7331651
  entropy:           418.9226079
  heat_capacity:     124.5814082
  energy:            111.1079559

- temperature:       900.0000000
  free_energy:      -265.9293641
  entropy:           420.3146094
  heat_capacity:     124.5842666
  energy:            112.3537844

- temperature:       910.0000000
  free_energy:      -270.1394061
  entropy:           421.6912605
  heat_capacity:     124.5870314
  energy:            113.5996409

- temperature:       920.0000000
  free_energy:      -274.3631392
  entropy:           423.0528956
  heat_capacity:     124.5897066
  energy:            114.8455247

- temperature:       930.0000000
  free_energy:      -278.6004150
  entropy:           424.3998385
  heat_capacity:     124.5922961
  energy:            116.0914348

- temperature:       940.0000000
  free_energy:      -282.8510881
  entropy:           425.7324026
  heat_capacity:     124.5948035
  energy:            117.3373704

- temperature:       950.0000000
  free_energy:      -287.1150162
  entropy:           427.0508913
  heat_capacity:     124.5972321
  energy:            118.5833306

- temperature:       960.0000000
  free_energy:      -291.3920600
  entropy:           428.3555987
  heat_capacity:     124.5995854
  energy:            119.8293147

- temperature:       970.0000000
  free_energy:      -295.6820832
  entropy:           429.6468095
  heat_capacity:     124.6018663
  energy:            121.0753221

- temperature:       980.0000000
  free_energy:      -299.9849521
  entropy:           430.9247999
  heat_capacity:     124.6040778
  energy:            122.3213518

- temperature:       990.0000000
  free_energy:      -304.3005360
  entropy:           432.1898377
  heat_capacity:     124.6062228
  energy:            123.5674034

- temperature:      1000.0000000
  free_energy:      -308.6287065
  entropy:           433.4421826
  heat_capacity:     124.6083037
  energy:            124.8134761
