phonopy:
  version: "2.37.1"
  frequency_unit_conversion_factor: 15.633302
  symmetry_tolerance: 1.00000e-05

space_group:
  type: "Fmmm"
  number: 69
  Hall_symbol: "-F 2 2"

primitive_matrix:
- [  1.000000000000000,  1.000000000000000,  1.000000000000000 ]
- [  0.000000000000000,  0.000000000000000, -1.000000000000000 ]
- [ -1.000000000000000,  0.000000000000000, -0.000000000000000 ]

supercell_matrix:
- [   2,   0,   0 ]
- [   0,   2,   0 ]
- [   0,   0,   4 ]

primitive_cell:
  lattice:
  - [     6.079328265154790,    -0.211126713146036,    -3.202562210303194 ] # a
  - [     6.870811977441603,     0.000000000000000,     0.000000000000000 ] # b
  - [     0.791481866745589,    -3.209514539415798,    -0.000000000000000 ] # c
  points:
  - symbol: Li # 1
    coordinates: [  0.999999993763807,  0.000000032568951,  0.000000074616550 ]
    mass: 6.940000
  - symbol: Sn # 2
    coordinates: [  0.345205472965661,  0.345205861761421,  0.654794205734777 ]
    mass: 118.710000
  - symbol: Sn # 3
    coordinates: [  0.654794531597357,  0.654794108033671,  0.345205717822988 ]
    mass: 118.710000
  reciprocal_lattice: # without 2pi
  - [     0.000000000000000,     0.000000000000000,    -0.312249984335301 ] # a*
  - [     0.145543205560452,     0.035891661064135,     0.273914190366975 ] # b*
  - [     0.000000000000000,    -0.311573600218687,     0.020540275503663 ] # c*

unit_cell:
  lattice:
  - [     6.870811977441603,     0.000000000000000,     0.000000000000000 ] # a
  - [     6.079330110696014,     3.209514539415798,     0.000000000000000 ] # b
  - [     0.791483712286813,     0.211126713146036,     3.202562210303194 ] # c
  points:
  - symbol: Li # 1
    coordinates: [  0.000000100949309,  0.999999925383450,  0.000000006236193 ]
    mass: 6.940000
    reduced_to: 1
  - symbol: Sn # 2
    coordinates: [  0.345205540461859,  0.345205794265223,  0.654794527034339 ]
    mass: 118.710000
    reduced_to: 2
  - symbol: Sn # 3
    coordinates: [  0.654794357454016,  0.654794282177012,  0.345205468402643 ]
    mass: 118.710000
    reduced_to: 3

supercell:
  lattice:
  - [    13.741623954883206,     0.000000000000000,     0.000000000000000 ] # a
  - [    12.158660221392028,     6.419029078831596,     0.000000000000000 ] # b
  - [     3.165934849147251,     0.844506852584143,    12.810248841212777 ] # c
  points:
  - symbol: Li # 1
    coordinates: [  0.000000050474655,  0.499999962691725,  0.000000001559048 ]
    mass: 6.940000
    reduced_to: 1
  - symbol: Li # 2
    coordinates: [  0.500000050474655,  0.499999962691725,  0.000000001559048 ]
    mass: 6.940000
    reduced_to: 1
  - symbol: Li # 3
    coordinates: [  0.000000050474655,  0.999999962691725,  0.000000001559048 ]
    mass: 6.940000
    reduced_to: 1
  - symbol: Li # 4
    coordinates: [  0.500000050474655,  0.999999962691725,  0.000000001559048 ]
    mass: 6.940000
    reduced_to: 1
  - symbol: Li # 5
    coordinates: [  0.000000050474655,  0.499999962691725,  0.250000001559048 ]
    mass: 6.940000
    reduced_to: 1
  - symbol: Li # 6
    coordinates: [  0.500000050474655,  0.499999962691725,  0.250000001559048 ]
    mass: 6.940000
    reduced_to: 1
  - symbol: Li # 7
    coordinates: [  0.000000050474655,  0.999999962691725,  0.250000001559048 ]
    mass: 6.940000
    reduced_to: 1
  - symbol: Li # 8
    coordinates: [  0.500000050474655,  0.999999962691725,  0.250000001559048 ]
    mass: 6.940000
    reduced_to: 1
  - symbol: Li # 9
    coordinates: [  0.000000050474655,  0.499999962691725,  0.500000001559048 ]
    mass: 6.940000
    reduced_to: 1
  - symbol: Li # 10
    coordinates: [  0.500000050474655,  0.499999962691725,  0.500000001559048 ]
    mass: 6.940000
    reduced_to: 1
  - symbol: Li # 11
    coordinates: [  0.000000050474655,  0.999999962691725,  0.500000001559048 ]
    mass: 6.940000
    reduced_to: 1
  - symbol: Li # 12
    coordinates: [  0.500000050474655,  0.999999962691725,  0.500000001559048 ]
    mass: 6.940000
    reduced_to: 1
  - symbol: Li # 13
    coordinates: [  0.000000050474655,  0.499999962691725,  0.750000001559048 ]
    mass: 6.940000
    reduced_to: 1
  - symbol: Li # 14
    coordinates: [  0.500000050474655,  0.499999962691725,  0.750000001559048 ]
    mass: 6.940000
    reduced_to: 1
  - symbol: Li # 15
    coordinates: [  0.000000050474655,  0.999999962691725,  0.750000001559048 ]
    mass: 6.940000
    reduced_to: 1
  - symbol: Li # 16
    coordinates: [  0.500000050474655,  0.999999962691725,  0.750000001559048 ]
    mass: 6.940000
    reduced_to: 1
  - symbol: Sn # 17
    coordinates: [  0.172602770230929,  0.172602897132611,  0.163698631758585 ]
    mass: 118.710000
    reduced_to: 17
  - symbol: Sn # 18
    coordinates: [  0.672602770230929,  0.172602897132611,  0.163698631758585 ]
    mass: 118.710000
    reduced_to: 17
  - symbol: Sn # 19
    coordinates: [  0.172602770230929,  0.672602897132611,  0.163698631758585 ]
    mass: 118.710000
    reduced_to: 17
  - symbol: Sn # 20
    coordinates: [  0.672602770230929,  0.672602897132611,  0.163698631758585 ]
    mass: 118.710000
    reduced_to: 17
  - symbol: Sn # 21
    coordinates: [  0.172602770230929,  0.172602897132611,  0.413698631758585 ]
    mass: 118.710000
    reduced_to: 17
  - symbol: Sn # 22
    coordinates: [  0.672602770230929,  0.172602897132611,  0.413698631758585 ]
    mass: 118.710000
    reduced_to: 17
  - symbol: Sn # 23
    coordinates: [  0.172602770230929,  0.672602897132611,  0.413698631758585 ]
    mass: 118.710000
    reduced_to: 17
  - symbol: Sn # 24
    coordinates: [  0.672602770230929,  0.672602897132611,  0.413698631758585 ]
    mass: 118.710000
    reduced_to: 17
  - symbol: Sn # 25
    coordinates: [  0.172602770230929,  0.172602897132611,  0.663698631758585 ]
    mass: 118.710000
    reduced_to: 17
  - symbol: Sn # 26
    coordinates: [  0.672602770230929,  0.172602897132611,  0.663698631758585 ]
    mass: 118.710000
    reduced_to: 17
  - symbol: Sn # 27
    coordinates: [  0.172602770230929,  0.672602897132611,  0.663698631758585 ]
    mass: 118.710000
    reduced_to: 17
  - symbol: Sn # 28
    coordinates: [  0.672602770230929,  0.672602897132611,  0.663698631758585 ]
    mass: 118.710000
    reduced_to: 17
  - symbol: Sn # 29
    coordinates: [  0.172602770230929,  0.172602897132611,  0.913698631758585 ]
    mass: 118.710000
    reduced_to: 17
  - symbol: Sn # 30
    coordinates: [  0.672602770230929,  0.172602897132611,  0.913698631758585 ]
    mass: 118.710000
    reduced_to: 17
  - symbol: Sn # 31
    coordinates: [  0.172602770230929,  0.672602897132611,  0.913698631758585 ]
    mass: 118.710000
    reduced_to: 17
  - symbol: Sn # 32
    coordinates: [  0.672602770230929,  0.672602897132611,  0.913698631758585 ]
    mass: 118.710000
    reduced_to: 17
  - symbol: Sn # 33
    coordinates: [  0.327397178727008,  0.327397141088506,  0.086301367100661 ]
    mass: 118.710000
    reduced_to: 33
  - symbol: Sn # 34
    coordinates: [  0.827397178727008,  0.327397141088506,  0.086301367100661 ]
    mass: 118.710000
    reduced_to: 33
  - symbol: Sn # 35
    coordinates: [  0.327397178727008,  0.827397141088506,  0.086301367100661 ]
    mass: 118.710000
    reduced_to: 33
  - symbol: Sn # 36
    coordinates: [  0.827397178727008,  0.827397141088506,  0.086301367100661 ]
    mass: 118.710000
    reduced_to: 33
  - symbol: Sn # 37
    coordinates: [  0.327397178727008,  0.327397141088506,  0.336301367100661 ]
    mass: 118.710000
    reduced_to: 33
  - symbol: Sn # 38
    coordinates: [  0.827397178727008,  0.327397141088506,  0.336301367100661 ]
    mass: 118.710000
    reduced_to: 33
  - symbol: Sn # 39
    coordinates: [  0.327397178727008,  0.827397141088506,  0.336301367100661 ]
    mass: 118.710000
    reduced_to: 33
  - symbol: Sn # 40
    coordinates: [  0.827397178727008,  0.827397141088506,  0.336301367100661 ]
    mass: 118.710000
    reduced_to: 33
  - symbol: Sn # 41
    coordinates: [  0.327397178727008,  0.327397141088506,  0.586301367100661 ]
    mass: 118.710000
    reduced_to: 33
  - symbol: Sn # 42
    coordinates: [  0.827397178727008,  0.327397141088506,  0.586301367100661 ]
    mass: 118.710000
    reduced_to: 33
  - symbol: Sn # 43
    coordinates: [  0.327397178727008,  0.827397141088506,  0.586301367100661 ]
    mass: 118.710000
    reduced_to: 33
  - symbol: Sn # 44
    coordinates: [  0.827397178727008,  0.827397141088506,  0.586301367100661 ]
    mass: 118.710000
    reduced_to: 33
  - symbol: Sn # 45
    coordinates: [  0.327397178727008,  0.327397141088506,  0.836301367100661 ]
    mass: 118.710000
    reduced_to: 33
  - symbol: Sn # 46
    coordinates: [  0.827397178727008,  0.327397141088506,  0.836301367100661 ]
    mass: 118.710000
    reduced_to: 33
  - symbol: Sn # 47
    coordinates: [  0.327397178727008,  0.827397141088506,  0.836301367100661 ]
    mass: 118.710000
    reduced_to: 33
  - symbol: Sn # 48
    coordinates: [  0.827397178727008,  0.827397141088506,  0.836301367100661 ]
    mass: 118.710000
    reduced_to: 33

displacements:
- atom:    1
  displacement:
    [   0.0100000000000000,  0.0000000000000000,  0.0000000000000000 ]
  forces:
  - [  -0.0184887498617172, -0.0002533586812206,  0.0003624239761848 ]
  - [  -0.0001447349786758, -0.0000288868322968,  0.0000116173177958 ]
  - [  -0.0001381813781336, -0.0000369209737983,  0.0000320972467307 ]
  - [  -0.0008936291560531, -0.0011155270040035,  0.0000175200402737 ]
  - [  -0.0004330239025876,  0.0000327819725499,  0.0005525519372895 ]
  - [  -0.0000718267401680, -0.0000014781253412,  0.0000318115635309 ]
  - [  -0.0000570098636672, -0.0000298579398077,  0.0000312143529300 ]
  - [   0.0007029017433524,  0.0001644828589633, -0.0001789564266801 ]
  - [  -0.0000071363756433,  0.0000071848335210, -0.0000999214244075 ]
  - [  -0.0000274507328868,  0.0000194478780031, -0.0000008214265108 ]
  - [  -0.0000041331513785, -0.0000269660522463, -0.0000218897184823 ]
  - [   0.0000283378176391, -0.0000018522841856, -0.0000088885426521 ]
  - [  -0.0004310980439186,  0.0000331196933985,  0.0005640909075737 ]
  - [  -0.0000715119094821, -0.0000028186477721,  0.0000320905819535 ]
  - [  -0.0000573478755541, -0.0000296388025163,  0.0000318552192766 ]
  - [   0.0007045107195154,  0.0001652491919231, -0.0001721662119962 ]
  - [   0.0155370533466339,  0.0056147631257772, -0.0058227796107531 ]
  - [   0.0152425318956375,  0.0037594959139824, -0.0040782038122416 ]
  - [   0.0148660317063332,  0.0036474820226431, -0.0040961336344481 ]
  - [   0.0172565951943398,  0.0016386955976486, -0.0068945661187172 ]
  - [   0.0150633007287979,  0.0036770328879356, -0.0038688872009516 ]
  - [   0.0150929018855095,  0.0037132054567337, -0.0039526298642159 ]
  - [   0.0150587409734726,  0.0037237610667944, -0.0039902776479721 ]
  - [   0.0150198340415955,  0.0037492047995329, -0.0038497112691402 ]
  - [   0.0150220915675163,  0.0036716163158417, -0.0040952954441309 ]
  - [   0.0152093619108200,  0.0037234965711832, -0.0039137434214354 ]
  - [   0.0149817094206810,  0.0036645513027906, -0.0037860181182623 ]
  - [   0.0149794518947601,  0.0037275981158018, -0.0040871147066355 ]
  - [   0.0171739980578423,  0.0069298949092627, -0.0022077746689320 ]
  - [   0.0147525593638420,  0.0036732908338308, -0.0038626976311207 ]
  - [   0.0155933126807213,  0.0039212089031935, -0.0041750837117434 ]
  - [   0.0199215337634087,  0.0012290701270103, -0.0014680121093988 ]
  - [  -0.0100727155804634, -0.0062908343970776,  0.0065635275095701 ]
  - [  -0.0145533606410027, -0.0035168845206499,  0.0037683397531509 ]
  - [  -0.0154035538434982, -0.0037612449377775,  0.0040850918740034 ]
  - [  -0.0129488557577133, -0.0004396215081215,  0.0057728104293346 ]
  - [  -0.0151676014065742, -0.0037079118192196,  0.0038543473929167 ]
  - [  -0.0151652470231056, -0.0037711653858423,  0.0041597615927458 ]
  - [  -0.0149329677224159, -0.0037121791392565,  0.0040179453790188 ]
  - [  -0.0151231437921524, -0.0037655942142010,  0.0038469191640615 ]
  - [  -0.0151275917887688, -0.0036839973181486,  0.0040892269462347 ]
  - [  -0.0150875076651573, -0.0037111919373274,  0.0039499737322330 ]
  - [  -0.0150520727038383, -0.0037206523120403,  0.0039861537516117 ]
  - [  -0.0150811225175858, -0.0037587266415358,  0.0040709227323532 ]
  - [  -0.0128618702292442, -0.0058412402868271,  0.0009823609143496 ]
  - [  -0.0152888596057892, -0.0037899818271399,  0.0038374699652195 ]
  - [  -0.0148914903402328, -0.0036775805056095,  0.0038719642907381 ]
  - [  -0.0146230608224869, -0.0018105339258909,  0.0021074768155813 ]
- atom:    1
  displacement:
    [   0.0088432594776064,  0.0046687002272286,  0.0000000000000000 ]
  forces:
  - [  -0.0164679922163486, -0.0082836197689176,  0.0004759003059007 ]
  - [  -0.0001415638253093, -0.0000275364145637,  0.0000305026769638 ]
  - [  -0.0001399854663759, -0.0000378627737518,  0.0000126925588120 ]
  - [  -0.0013109855353832,  0.0005723461508751,  0.0000098552554846 ]
  - [  -0.0003680743975565, -0.0002285942609888,  0.0005535722011700 ]
  - [  -0.0000648852437735,  0.0000001647276804,  0.0000300226965919 ]
  - [  -0.0000643006642349, -0.0000315891084028,  0.0000332353229169 ]
  - [   0.0006981077603996,  0.0001832235138863, -0.0001782942563295 ]
  - [  -0.0000027464702725, -0.0000103609345388, -0.0001000829797704 ]
  - [  -0.0000158678740263,  0.0000216846819967, -0.0000236453488469 ]
  - [  -0.0000161207863130, -0.0000294726196444,  0.0000010981893865 ]
  - [   0.0000239224173129,  0.0000157395843416, -0.0000091763213277 ]
  - [  -0.0003661569207907, -0.0002271868288517,  0.0005650240927935 ]
  - [  -0.0000644915999146, -0.0000009983778000,  0.0000303504057229 ]
  - [  -0.0000649148714729, -0.0000313678028760,  0.0000339146499755 ]
  - [   0.0006996116135269,  0.0001832604757510, -0.0001712975499686 ]
  - [   0.0160603746771812,  0.0066514834761620, -0.0070046335458755 ]
  - [   0.0152401402592659,  0.0037923157215118, -0.0040730927139521 ]
  - [   0.0148506462574005,  0.0036937724798918, -0.0040982533246279 ]
  - [   0.0163342282176018,  0.0023103319108486, -0.0057491399347782 ]
  - [   0.0150374174118042,  0.0036650300025940, -0.0038547962903976 ]
  - [   0.0150879621505737,  0.0037307273596525, -0.0039547495543957 ]
  - [   0.0150635838508606,  0.0037063211202621, -0.0039897970855236 ]
  - [   0.0150444507598877,  0.0037515237927437, -0.0038651842623949 ]
  - [   0.0149951130151749,  0.0036607664078474, -0.0040970705449581 ]
  - [   0.0151993706822395,  0.0037535708397627, -0.0039070788770914 ]
  - [   0.0149721205234528,  0.0037143547087908, -0.0037893895059824 ]
  - [   0.0150118619203568,  0.0037300121039152, -0.0040879193693399 ]
  - [   0.0181077346205711,  0.0080461539328098, -0.0015630200505257 ]
  - [   0.0147720500826836,  0.0036030672490597, -0.0038564000278711 ]
  - [   0.0156280845403671,  0.0037818960845470, -0.0041719730943441 ]
  - [   0.0185311734676361,  0.0017871148884296, -0.0021390449255705 ]
  - [  -0.0115603581070900, -0.0056965462863445,  0.0058448016643524 ]
  - [  -0.0145206600427628, -0.0036504380404949,  0.0037716384977102 ]
  - [  -0.0153829157352448, -0.0038370024412870,  0.0040912963449955 ]
  - [  -0.0119479224085808,  0.0007539503276348,  0.0064646061509848 ]
  - [  -0.0151345133781433, -0.0037052147090435,  0.0038522928953171 ]
  - [  -0.0151752531528473, -0.0037210378795862,  0.0041562281548977 ]
  - [  -0.0149436965584755, -0.0036781188100576,  0.0040243100374937 ]
  - [  -0.0151513814926147, -0.0037766005843878,  0.0038458555936813 ]
  - [  -0.0151017904281616, -0.0036819390952587,  0.0040737763047218 ]
  - [  -0.0150833204388618, -0.0037277843803167,  0.0039504095911980 ]
  - [  -0.0150568187236786, -0.0037042554467916,  0.0039839670062065 ]
  - [  -0.0151084363460541, -0.0037710629403591,  0.0040850322693586 ]
  - [  -0.0138195380568504, -0.0051377788186073,  0.0021826550364494 ]
  - [  -0.0153039470314980, -0.0037432163953781,  0.0038355067372322 ]
  - [  -0.0148961842060089, -0.0036391988396645,  0.0038765203207731 ]
  - [  -0.0140832439064980, -0.0007300283759832,  0.0008690115064383 ]
- atom:    1
  displacement:
    [   0.0023943247323026,  0.0006386813816734,  0.0096881006997754 ]
  forces:
  - [  -0.0040910048410296, -0.0008401916129515, -0.0163202639669180 ]
  - [  -0.0000249492004514,  0.0000349795445800,  0.0000147279351950 ]
  - [  -0.0000047395005822, -0.0000412293302361,  0.0000159995688591 ]
  - [  -0.0002689193934202, -0.0000653536990285, -0.0010827435180545 ]
  - [   0.0004418196622282,  0.0001099531364162,  0.0017813437152654 ]
  - [   0.0000135495793074,  0.0000042333267629, -0.0000044426706154 ]
  - [   0.0000143549987115,  0.0000043807667680, -0.0000044429616537 ]
  - [   0.0000085975043476,  0.0000045327469707,  0.0000392049551010 ]
  - [  -0.0000978473108262, -0.0000245868286584, -0.0003937001165468 ]
  - [  -0.0000063916668296, -0.0000414320966229, -0.0000068489462137 ]
  - [  -0.0000240691588260,  0.0000348756002495, -0.0000080056925071 ]
  - [  -0.0000028559006751, -0.0000005378387868, -0.0000025201588869 ]
  - [   0.0004362668842077,  0.0001089591532946,  0.0017599919810891 ]
  - [   0.0000140114416354,  0.0000042202882469, -0.0000044619664550 ]
  - [   0.0000146187376231,  0.0000035883713281, -0.0000041644671001 ]
  - [   0.0000086817890406,  0.0000044599291869,  0.0000379558186978 ]
  - [   0.0140052437782288,  0.0013005379587412, -0.0015251319855452 ]
  - [   0.0152579993009567,  0.0037760622799397, -0.0039398279041052 ]
  - [   0.0150035098195076,  0.0037043318152428, -0.0040110759437084 ]
  - [   0.0130726099014282,  0.0053221024572849, -0.0015918947756290 ]
  - [   0.0150240734219551,  0.0036790445446968, -0.0040313173085451 ]
  - [   0.0150967687368393,  0.0037237964570522, -0.0039274208247662 ]
  - [   0.0150875225663185,  0.0037231743335724, -0.0040761455893517 ]
  - [   0.0150135159492493,  0.0037245918065310, -0.0040387883782387 ]
  - [   0.0150785744190216,  0.0037402529269457, -0.0040646102279425 ]
  - [   0.0149110853672028,  0.0036894511431456, -0.0038592144846916 ]
  - [   0.0151147022843361,  0.0037318449467421, -0.0040461216121912 ]
  - [   0.0150922685861588,  0.0036972165107727, -0.0040571875870228 ]
  - [   0.0169925764203072,  0.0062579382210970, -0.0026387069374323 ]
  - [   0.0151006057858467,  0.0037129335105419, -0.0038120578974485 ]
  - [   0.0149766281247139,  0.0036981273442507, -0.0041833091527224 ]
  - [   0.0180448442697525,  0.0023286622017622, -0.0026081111282110 ]
  - [  -0.0120570287108421, -0.0051250886172056,  0.0053362511098385 ]
  - [  -0.0151693224906921, -0.0037365797907114,  0.0037572458386421 ]
  - [  -0.0150460228323936, -0.0037223082035780,  0.0041315723210573 ]
  - [  -0.0131256580352783, -0.0011408273130655,  0.0053045488893986 ]
  - [  -0.0150472968816757, -0.0037397202104330,  0.0038874745368958 ]
  - [  -0.0150318220257759, -0.0037032719701529,  0.0038982126861811 ]
  - [  -0.0152297243475914, -0.0037434231489897,  0.0040774103254080 ]
  - [  -0.0150620862841606, -0.0036922078579664,  0.0038821026682854 ]
  - [  -0.0151294544339180, -0.0037113875150681,  0.0038949288427830 ]
  - [  -0.0150578469038010, -0.0037109032273293,  0.0038630459457636 ]
  - [  -0.0150464773178101, -0.0037104897201061,  0.0040115024894476 ]
  - [  -0.0151192769408226, -0.0037531740963459,  0.0039022676646709 ]
  - [  -0.0170356035232544, -0.0021326970309019,  0.0063270349055529 ]
  - [  -0.0151458308100700, -0.0037314370274544,  0.0039260331541300 ]
  - [  -0.0148833468556404, -0.0036594923585653,  0.0040008574724197 ]
  - [  -0.0161168128252029, -0.0060978829860687,  0.0063927862793207 ]
- atom:   17
  displacement:
    [   0.0100000000000000,  0.0000000000000000,  0.0000000000000000 ]
  forces:
  - [   0.0004487689584494,  0.0012528437655419, -0.0012853631051257 ]
  - [   0.0001810789108276,  0.0000350922346115,  0.0001506749540567 ]
  - [  -0.0002116659888998, -0.0000825297611300, -0.0000152645225171 ]
  - [   0.0022099502384663, -0.0014874283224344, -0.0025217914953828 ]
  - [   0.0021250834688544,  0.0026272675022483,  0.0013191737234592 ]
  - [  -0.0003253836184740, -0.0000377008691430,  0.0001084690738935 ]
  - [   0.0005155176040716,  0.0001988909207284, -0.0002372823946644 ]
  - [   0.0050031435675919, -0.0018987262155861,  0.0020362772047520 ]
  - [  -0.0000525040086359, -0.0000731392065063,  0.0000241171510424 ]
  - [   0.0001366608776152,  0.0000110990367830, -0.0001990906894207 ]
  - [  -0.0000936351134442, -0.0000438824208686,  0.0000679307268001 ]
  - [  -0.0000961860641837,  0.0000471334205940,  0.0000422373414040 ]
  - [  -0.0000093877315521, -0.0000569298863411, -0.0000441642478108 ]
  - [   0.0000191076396732, -0.0000050952658057,  0.0000204220414162 ]
  - [  -0.0000151660060510,  0.0000060294405557,  0.0000186980469152 ]
  - [  -0.0000530184479430,  0.0000400237622671, -0.0000504156923853 ]
  - [  -0.0037436932325363,  0.0038102120161057, -0.0045183394104242 ]
  - [   0.0156187191605568,  0.0036681275814772, -0.0039780568331480 ]
  - [   0.0154352188110352,  0.0039879605174065, -0.0039387736469507 ]
  - [   0.0157694295048714,  0.0009740069508553, -0.0040702242404222 ]
  - [   0.0154388993978500,  0.0039288904517889, -0.0047205016016960 ]
  - [   0.0152812749147415,  0.0037708766758442, -0.0040604826062918 ]
  - [   0.0152118429541588,  0.0037491545081139, -0.0040535219013691 ]
  - [   0.0148646757006645,  0.0034974068403244, -0.0036140903830528 ]
  - [   0.0152085274457932,  0.0037398319691420, -0.0035453755408525 ]
  - [   0.0151142776012421,  0.0037458501756191, -0.0039396025240421 ]
  - [   0.0151310414075851,  0.0037136096507311, -0.0039572119712830 ]
  - [   0.0151132941246033,  0.0037342607975006, -0.0041257608681917 ]
  - [   0.0154464766383171,  0.0039413385093212, -0.0005156248807907 ]
  - [   0.0152825340628624,  0.0036037471145391, -0.0041442234069109 ]
  - [   0.0152125135064125,  0.0039200894534588, -0.0041382219642401 ]
  - [   0.0148654282093048,  0.0035008303821087, -0.0038614310324192 ]
  - [  -0.0163840055465698, -0.0040764026343822,  0.0043564364314079 ]
  - [  -0.0107047259807587, -0.0050578117370605,  0.0053316224366426 ]
  - [  -0.0130241736769676, -0.0008105989545584,  0.0049651861190796 ]
  - [  -0.0147905498743057, -0.0036571342498064,  0.0038982313126326 ]
  - [  -0.0148225799202919, -0.0036556627601385,  0.0042467992752790 ]
  - [  -0.0129287689924240, -0.0049489904195070,  0.0012057255953550 ]
  - [  -0.0145299658179283, -0.0017921514809132,  0.0020041000097990 ]
  - [  -0.0160221830010414, -0.0038533713668585,  0.0035220198333263 ]
  - [  -0.0152578949928284, -0.0037614088505507,  0.0040131229907274 ]
  - [  -0.0152269154787064, -0.0036596320569515,  0.0039773881435394 ]
  - [  -0.0151354968547821, -0.0038267914205790,  0.0040310174226761 ]
  - [  -0.0151668563485146, -0.0037437193095684,  0.0040023885667324 ]
  - [  -0.0151340439915657, -0.0037440005689859,  0.0036576427519321 ]
  - [  -0.0152302533388138, -0.0037226062268019,  0.0040143448859453 ]
  - [  -0.0152001902461052, -0.0037838965654373,  0.0039491746574640 ]
  - [  -0.0154741778969765, -0.0037249792367220,  0.0045716147869825 ]
- atom:   17
  displacement:
    [  -0.0100000000000000,  0.0000000000000000,  0.0000000000000000 ]
  forces:
  - [  -0.0004642250714824, -0.0012500770390034,  0.0012842981377617 ]
  - [  -0.0001708939671516, -0.0000372761860490, -0.0001445990055799 ]
  - [   0.0002127764746547,  0.0000879944127519,  0.0000169833947439 ]
  - [  -0.0021822107955813,  0.0014510359615088,  0.0024611772969365 ]
  - [  -0.0020992485806346, -0.0025643678382039, -0.0012854356318712 ]
  - [   0.0003247716231272,  0.0000368088949472, -0.0001145979622379 ]
  - [  -0.0005255354917608, -0.0002038168313447,  0.0002438411756884 ]
  - [  -0.0048424978740513,  0.0018239486962557, -0.0019542556256056 ]
  - [   0.0000509534729645,  0.0000708989682607, -0.0000260950473603 ]
  - [  -0.0001403600908816, -0.0000127594685182,  0.0001988140866160 ]
  - [   0.0000917891156860,  0.0000442529126303, -0.0000674558687024 ]
  - [   0.0000918311998248, -0.0000463054748252, -0.0000444417819381 ]
  - [   0.0000101421028376,  0.0000614449381828,  0.0000433642417192 ]
  - [  -0.0000211031438084,  0.0000062528997660, -0.0000215270556509 ]
  - [   0.0000128825195134, -0.0000068409135565, -0.0000187583646039 ]
  - [   0.0000561862252653, -0.0000403645972256,  0.0000494836422149 ]
  - [   0.0340227335691452,  0.0037038326263428, -0.0035014785826206 ]
  - [   0.0145328864455223,  0.0037637948989868, -0.0039572417736053 ]
  - [   0.0147133320569992,  0.0034512430429459, -0.0039962306618690 ]
  - [   0.0143869593739510,  0.0064724292606115, -0.0038646794855595 ]
  - [   0.0147058814764023,  0.0035047885030508, -0.0032308660447598 ]
  - [   0.0148620381951332,  0.0036647487431765, -0.0038768872618675 ]
  - [   0.0149318575859070,  0.0036838650703430, -0.0038861092180014 ]
  - [   0.0152783691883087,  0.0039343498647213, -0.0043298099189997 ]
  - [   0.0149381905794144,  0.0036939438432455, -0.0043979994952679 ]
  - [   0.0150301381945610,  0.0036878772079945, -0.0040005836635828 ]
  - [   0.0150143206119537,  0.0037208925932646, -0.0039812140166759 ]
  - [   0.0150298252701759,  0.0037011839449406, -0.0038134176284075 ]
  - [   0.0147132799029350,  0.0034888088703156, -0.0074253082275391 ]
  - [   0.0148635804653168,  0.0038261637091637, -0.0038050096482038 ]
  - [   0.0149322077631950,  0.0035211611539125, -0.0038096904754639 ]
  - [   0.0152791887521744,  0.0039314534515142, -0.0040717944502831 ]
  - [  -0.0138295292854309, -0.0033791381865740,  0.0036062505096197 ]
  - [  -0.0196193158626556, -0.0022978261113167,  0.0025275032967329 ]
  - [  -0.0171725451946259, -0.0067248009145260,  0.0029303748160601 ]
  - [  -0.0153591483831406, -0.0037780329585075,  0.0040424000471830 ]
  - [  -0.0153224989771843, -0.0037819892168045,  0.0037022307515144 ]
  - [  -0.0172676518559456, -0.0024322196841240,  0.0068240817636251 ]
  - [  -0.0156117454171181, -0.0056846346706152,  0.0059764590114355 ]
  - [  -0.0141320824623108, -0.0035830698907375,  0.0044140666723251 ]
  - [  -0.0148849636316299, -0.0036728084087372,  0.0039243437349796 ]
  - [  -0.0149192735552788, -0.0037740524858236,  0.0039557795971632 ]
  - [  -0.0150062739849091, -0.0036066249012947,  0.0039073377847672 ]
  - [  -0.0149755999445915, -0.0036916825920343,  0.0039377603679895 ]
  - [  -0.0150116458535194, -0.0036919247359037,  0.0042758323252201 ]
  - [  -0.0149102732539177, -0.0037112403661013,  0.0039362348616123 ]
  - [  -0.0149454176425934, -0.0036540720611811,  0.0039955303072929 ]
  - [  -0.0146720632910728, -0.0037072505801916,  0.0033713821321726 ]
- atom:   17
  displacement:
    [   0.0088432594776064,  0.0046687002272286,  0.0000000000000000 ]
  forces:
  - [   0.0012963971821591,  0.0024088495410979, -0.0026272269897163 ]
  - [   0.0001790001988411,  0.0000764764845371,  0.0001543750986457 ]
  - [  -0.0002196201821789, -0.0000367615430150, -0.0000140568299685 ]
  - [   0.0009540393948555, -0.0008591534569860, -0.0012210207059979 ]
  - [   0.0034347702749074,  0.0038964415434748,  0.0019498327746987 ]
  - [  -0.0003085854696110, -0.0001097492640838,  0.0001035535824485 ]
  - [   0.0005481468979269,  0.0000663450628053, -0.0002346303081140 ]
  - [   0.0031999866478145, -0.0013851828407496,  0.0013806931674480 ]
  - [  -0.0000679909717292, -0.0000810795172583,  0.0000391584180761 ]
  - [   0.0001231092028320,  0.0000448714708909, -0.0001917146146297 ]
  - [  -0.0001074345200323,  0.0000035961566027,  0.0000701604003552 ]
  - [  -0.0000812467187643,  0.0000453293323517,  0.0000254502519965 ]
  - [  -0.0000267215073109, -0.0000665318220854, -0.0000511463731527 ]
  - [   0.0000150731493704,  0.0000115325674415,  0.0000204751268029 ]
  - [  -0.0000107013620436, -0.0000107051309897,  0.0000197767512873 ]
  - [  -0.0000318189850077,  0.0000411392829847, -0.0000453736283816 ]
  - [  -0.0015311092138290, -0.0051173157989979, -0.0044847056269646 ]
  - [   0.0155337378382683,  0.0036468766629696, -0.0039390698075294 ]
  - [   0.0155185535550117,  0.0040085911750793, -0.0039769448339939 ]
  - [   0.0144081115722656,  0.0064917672425508, -0.0040733329951763 ]
  - [   0.0155020952224731,  0.0036993734538555, -0.0047068055719137 ]
  - [   0.0152050107717514,  0.0037521049380302, -0.0040486119687557 ]
  - [   0.0152887925505638,  0.0037684384733438, -0.0040652342140675 ]
  - [   0.0147877261042595,  0.0038190260529518, -0.0036086589097977 ]
  - [   0.0152038261294365,  0.0037657804787159, -0.0035398527979851 ]
  - [   0.0151225253939629,  0.0037480406463146, -0.0039584375917912 ]
  - [   0.0151228904724121,  0.0037114582955837, -0.0039386693388224 ]
  - [   0.0151162892580032,  0.0037218742072582, -0.0041259769350290 ]
  - [   0.0155012011528015,  0.0037158336490393, -0.0005052350461483 ]
  - [   0.0152830332517624,  0.0036041457206011, -0.0041363481432199 ]
  - [   0.0152116417884827,  0.0039196982979774, -0.0041466578841209 ]
  - [   0.0147871598601341,  0.0038237906992435, -0.0038538910448551 ]
  - [  -0.0163931250572205, -0.0040063802152872,  0.0043554399162531 ]
  - [  -0.0118227973580360, -0.0053423587232828,  0.0049894768744707 ]
  - [  -0.0119163542985916, -0.0005628205835819,  0.0052969250828028 ]
  - [  -0.0147948563098907, -0.0036405008286238,  0.0038985889405012 ]
  - [  -0.0148224234580994, -0.0036545861512423,  0.0042464155703783 ]
  - [  -0.0137483924627304, -0.0051689315587282,  0.0020520128309727 ]
  - [  -0.0136978849768639, -0.0015931408852339,  0.0011442322283983 ]
  - [  -0.0159747600555420, -0.0040214639157057,  0.0035237036645412 ]
  - [  -0.0152571499347687, -0.0037660710513592,  0.0040135215967894 ]
  - [  -0.0151820033788681, -0.0036478731781244,  0.0040311254560947 ]
  - [  -0.0151794701814651, -0.0038381461054087,  0.0039776638150215 ]
  - [  -0.0151679068803787, -0.0037390347570181,  0.0040024444460869 ]
  - [  -0.0151393115520477, -0.0037251412868500,  0.0036578364670277 ]
  - [  -0.0152145028114319, -0.0037194825708866,  0.0039451327174902 ]