# Tetrahedron method
       -1.2062509099        0.0000000000
       -1.1511453083        0.0000000000
       -1.0960397066        0.0000000000
       -1.0409341050        0.0000000000
       -0.9858285034        0.0000000000
       -0.9307229018        0.0000000000
       -0.8756173001        0.0000000000
       -0.8205116985        0.0000000000
       -0.7654060969        0.0000000000
       -0.7103004953        0.0000000000
       -0.6551948936        0.0000000000
       -0.6000892920        0.0000000000
       -0.5449836904        0.0000000000
       -0.4898780888        0.0000000000
       -0.4347724871        0.0000000000
       -0.3796668855        0.0000000000
       -0.3245612839        0.0000000000
       -0.2694556822        0.0213442969
       -0.2143500806        0.0625926912
       -0.1592444790        0.0589991407
       -0.1041388774        0.0569137428
       -0.0490332757        0.0645144833
        0.0060723259        0.0744790736
        0.0611779275        0.0886548814
        0.1162835291        0.1113595158
        0.1713891308        0.1453515736
        0.2264947324        0.2005856091
        0.2816003340        0.2396239682
        0.3367059356        0.2842954697
        0.3918115373        0.3279635404
        0.4469171389        0.3872198878
        0.5020227405        0.4357803755
        0.5571283421        0.4832423526
        0.6122339438        0.5428932399
        0.6673395454        0.6127153108
        0.7224451470        0.6830866202
        0.7775507486        0.7757372076
        0.8326563503        0.9736226400
        0.8877619519        1.0817383925
        0.9428675535        1.2261324318
        0.9979731551        1.4769376984
        1.0530787568        1.8612892556
        1.1081843584        2.4877178111
        1.1632899600        4.5245720697
        1.2183955616        4.1807019480
        1.2735011633        4.3727297324
        1.3286067649        4.6696937083
        1.3837123665        4.1860636294
        1.4388179681        4.1594797037
        1.4939235698        4.2902469406
        1.5490291714        4.3304081455
        1.6041347730        4.1925011458
        1.6592403746        3.7911792896
        1.7143459763        3.3342688185
        1.7694515779        3.0799648493
        1.8245571795        2.6350100987
        1.8796627811        2.6943087740
        1.9347683828        2.8205581268
        1.9898739844        2.0821353286
        2.0449795860        1.8303862762
        2.1000851876        1.7698853232
        2.1551907893        1.9780131545
        2.2102963909        1.9121264120
        2.2654019925        2.5479590139
        2.3205075941        2.8642188677
        2.3756131958        3.0372500153
        2.4307187974        2.3713349047
        2.4858243990        2.5548529391
        2.5409300006        2.8066595295
        2.5960356023        3.5079545584
        2.6511412039        3.2823878671
        2.7062468055        3.1247681382
        2.7613524071        0.7514198982
        2.8164580088        0.0000000000
        2.8715636104        0.0000000000
        2.9266692120        0.0000000000
        2.9817748136        0.0000000000
        3.0368804153        0.0000000000
        3.0919860169        0.0000000000
        3.1470916185        0.0000000000
        3.2021972201        0.0000000000
        3.2573028218        0.0000000000
        3.3124084234        0.0000000000
        3.3675140250        0.0000000000
        3.4226196266        0.0000000000
        3.4777252283        0.0000000000
        3.5328308299        0.0000000000
        3.5879364315        0.0000000000
        3.6430420332        0.0000000000
        3.6981476348        0.0000000000
        3.7532532364        0.0000000000
        3.8083588380        0.0000000000
        3.8634644397        0.0000000000
        3.9185700413        0.0000000000
        3.9736756429        0.0000000000
        4.0287812445        0.0000000000
        4.0838868462        0.0000000000
        4.1389924478        0.0000000000
        4.1940980494        0.0000000000
        4.2492036510        0.0000000000
        4.3043092527        0.0000000000
        4.3594148543        0.0000000000
        4.4145204559        0.0000000000
        4.4696260575        0.0000000000
        4.5247316592        0.0000000000
        4.5798372608        0.0000000000
        4.6349428624        0.0000000000
        4.6900484640        0.0000000000
        4.7451540657        0.0000000000
        4.8002596673        0.0000000000
        4.8553652689        0.0000000000
        4.9104708705        0.0000000000
        4.9655764722        0.0000000000
        5.0206820738        0.0000000000
        5.0757876754        0.0000000000
        5.1308932770        0.0000000000
        5.1859988787        0.0000000000
        5.2411044803        0.0000000000
        5.2962100819        0.0000000000
        5.3513156835        0.0000000000
        5.4064212852        0.0000000000
        5.4615268868        0.0000000000
        5.5166324884        0.0000000000
        5.5717380900        0.0000000000
        5.6268436917        0.0000000000
        5.6819492933        0.0000000000
        5.7370548949        0.0000000000
        5.7921604965        0.0000000000
        5.8472660982        0.0000000000
        5.9023716998        0.0000000000
        5.9574773014        0.0000000000
        6.0125829030        0.0000000000
        6.0676885047        0.0000000000
        6.1227941063        0.0000000000
        6.1778997079        0.0000000000
        6.2330053095        0.0000000000
        6.2881109112        0.0000000000
        6.3432165128        0.0000000000
        6.3983221144        0.0000000000
        6.4534277160        0.0000000000
        6.5085333177        0.0000000000
        6.5636389193        0.0000000000
        6.6187445209        0.0000000000
        6.6738501225        0.6623028469
        6.7289557242        0.5954398155
        6.7840613258        0.5881804876
        6.8391669274        0.6301998655
        6.8942725290        0.6520628134
        6.9493781307        0.6995549631
        7.0044837323        0.7342202071
        7.0595893339        0.7919893082
        7.1146949355        0.8712438888
        7.1698005372        0.9757938127
        7.2249061388        1.8706697820
        7.2800117404        1.2645212624
        7.3351173421        1.0456118182
        7.3902229437        1.5111597879
        7.4453285453        1.4400303659
        7.5004341469        1.3211383485
        7.5555397486        1.2474289632
        7.6106453502        1.2828644765
        7.6657509518        1.4738836802
        7.7208565534        1.1101334673
        7.7759621551        0.9778016514
        7.8310677567        1.5509468211
        7.8861733583        1.2260106310
        7.9412789599        1.3356861268
        7.9963845616        1.3657086491
        8.0514901632        1.4274446748
        8.1065957648        1.5147905025
        8.1617013664        1.5592517355
        8.2168069681        1.6930835408
        8.2719125697        1.9449961874
        8.3270181713        2.0820720448
        8.3821237729        1.9707157778
        8.4372293746        2.4477098464
        8.4923349762        2.5471343607
        8.5474405778        2.9388868244
        8.6025461794        2.2769877028
        8.6576517811        1.6620159365
        8.7127573827        1.0991505724
        8.7678629843        0.7221975280
        8.8229685859        0.6680124820
        8.8780741876        0.6640314182
        8.9331797892        0.0000000000
        8.9882853908        0.0000000000
        9.0433909924        0.0000000000
        9.0984965941        0.0000000000
        9.1536021957        0.0000000000
        9.2087077973        0.0000000000
        9.2638133989        0.0000000000
        9.3189190006        0.0000000000
        9.3740246022        0.0000000000
        9.4291302038        0.0000000000
        9.4842358054        0.0000000000
        9.5393414071        0.0000000000
        9.5944470087        0.0000000000
        9.6495526103        0.0000000000
        9.7046582119        0.0000000000
        9.7597638136        0.0000000000
        9.8148694152        0.0000000000
