phonopy:
  version: "2.37.1"
  frequency_unit_conversion_factor: 15.633302
  symmetry_tolerance: 1.00000e-05

space_group:
  type: "P2_1/m"
  number: 11
  Hall_symbol: "-P 2yb"

primitive_matrix:
- [ -1.000000000000000,  0.000000000000000, -0.000000000000000 ]
- [  0.000000000000000, -1.000000000000000, -0.000000000000000 ]
- [  0.000000000000000,  0.000000000000000,  1.000000000000000 ]

supercell_matrix:
- [   3,   0,   0 ]
- [   0,   3,   0 ]
- [   0,   0,   3 ]

primitive_cell:
  lattice:
  - [    -3.347269983117718,     0.000000000000000,     0.000000000000000 ] # a
  - [    -0.000000004433441,    -4.957068088160877,     0.000000000000000 ] # b
  - [     0.000995902660073,     0.000000064954936,     4.982389716659691 ] # c
  points:
  - symbol: Li # 1
    coordinates: [  0.498863157744152,  0.249999992516749,  0.701797766705833 ]
    mass: 6.940000
  - symbol: Li # 2
    coordinates: [  0.501136838746601,  0.749999997841919,  0.298202231140732 ]
    mass: 6.940000
  - symbol: Sn # 3
    coordinates: [  0.999798738418709,  0.250000007497377,  0.206277558432766 ]
    mass: 118.710000
  - symbol: Sn # 4
    coordinates: [  0.000201265182097,  0.750000002190218,  0.793722443784902 ]
    mass: 118.710000
  reciprocal_lattice: # without 2pi
  - [    -0.298750923900252,     0.000000000267193,     0.000059715690007 ] # a*
  - [    -0.000000000000000,    -0.201732149370377,     0.000000002629963 ] # b*
  - [    -0.000000000000000,    -0.000000000000000,     0.200706901079272 ] # c*

unit_cell:
  lattice:
  - [     3.347269983117717,     0.000000000000000,     0.000000000000000 ] # a
  - [     0.000000004433441,     4.957068088160877,     0.000000000000000 ] # b
  - [     0.000995902660074,     0.000000064954936,     4.982389716659691 ] # c
  points:
  - symbol: Li # 1
    coordinates: [  0.501136842255848,  0.750000007483251,  0.701797766705833 ]
    mass: 6.940000
    reduced_to: 1
  - symbol: Li # 2
    coordinates: [  0.498863161253400,  0.250000002158081,  0.298202231140732 ]
    mass: 6.940000
    reduced_to: 2
  - symbol: Sn # 3
    coordinates: [  0.000201261581291,  0.749999992502623,  0.206277558432766 ]
    mass: 118.710000
    reduced_to: 3
  - symbol: Sn # 4
    coordinates: [  0.999798734817903,  0.249999997809782,  0.793722443784902 ]
    mass: 118.710000
    reduced_to: 4

supercell:
  lattice:
  - [    10.041809949353151,     0.000000000000000,     0.000000000000000 ] # a
  - [     0.000000013300322,    14.871204264482632,     0.000000000000000 ] # b
  - [     0.002987707980221,     0.000000194864807,    14.947169149979073 ] # c
  points:
  - symbol: Li # 1
    coordinates: [  0.167045614085283,  0.250000002494417,  0.233932588901944 ]
    mass: 6.940000
    reduced_to: 1
  - symbol: Li # 2
    coordinates: [  0.500378947418616,  0.250000002494417,  0.233932588901944 ]
    mass: 6.940000
    reduced_to: 1
  - symbol: Li # 3
    coordinates: [  0.833712280751949,  0.250000002494417,  0.233932588901944 ]
    mass: 6.940000
    reduced_to: 1
  - symbol: Li # 4
    coordinates: [  0.167045614085283,  0.583333335827750,  0.233932588901944 ]
    mass: 6.940000
    reduced_to: 1
  - symbol: Li # 5
    coordinates: [  0.500378947418616,  0.583333335827750,  0.233932588901944 ]
    mass: 6.940000
    reduced_to: 1
  - symbol: Li # 6
    coordinates: [  0.833712280751949,  0.583333335827750,  0.233932588901944 ]
    mass: 6.940000
    reduced_to: 1
  - symbol: Li # 7
    coordinates: [  0.167045614085283,  0.916666669161084,  0.233932588901944 ]
    mass: 6.940000
    reduced_to: 1
  - symbol: Li # 8
    coordinates: [  0.500378947418616,  0.916666669161084,  0.233932588901944 ]
    mass: 6.940000
    reduced_to: 1
  - symbol: Li # 9
    coordinates: [  0.833712280751949,  0.916666669161084,  0.233932588901944 ]
    mass: 6.940000
    reduced_to: 1
  - symbol: Li # 10
    coordinates: [  0.167045614085283,  0.250000002494417,  0.567265922235278 ]
    mass: 6.940000
    reduced_to: 1
  - symbol: Li # 11
    coordinates: [  0.500378947418616,  0.250000002494417,  0.567265922235278 ]
    mass: 6.940000
    reduced_to: 1
  - symbol: Li # 12
    coordinates: [  0.833712280751949,  0.250000002494417,  0.567265922235278 ]
    mass: 6.940000
    reduced_to: 1
  - symbol: Li # 13
    coordinates: [  0.167045614085283,  0.583333335827750,  0.567265922235278 ]
    mass: 6.940000
    reduced_to: 1
  - symbol: Li # 14
    coordinates: [  0.500378947418616,  0.583333335827750,  0.567265922235278 ]
    mass: 6.940000
    reduced_to: 1
  - symbol: Li # 15
    coordinates: [  0.833712280751949,  0.583333335827750,  0.567265922235278 ]
    mass: 6.940000
    reduced_to: 1
  - symbol: Li # 16
    coordinates: [  0.167045614085283,  0.916666669161084,  0.567265922235278 ]
    mass: 6.940000
    reduced_to: 1
  - symbol: Li # 17
    coordinates: [  0.500378947418616,  0.916666669161084,  0.567265922235278 ]
    mass: 6.940000
    reduced_to: 1
  - symbol: Li # 18
    coordinates: [  0.833712280751949,  0.916666669161084,  0.567265922235278 ]
    mass: 6.940000
    reduced_to: 1
  - symbol: Li # 19
    coordinates: [  0.167045614085283,  0.250000002494417,  0.900599255568611 ]
    mass: 6.940000
    reduced_to: 1
  - symbol: Li # 20
    coordinates: [  0.500378947418616,  0.250000002494417,  0.900599255568611 ]
    mass: 6.940000
    reduced_to: 1
  - symbol: Li # 21
    coordinates: [  0.833712280751949,  0.250000002494417,  0.900599255568611 ]
    mass: 6.940000
    reduced_to: 1
  - symbol: Li # 22
    coordinates: [  0.167045614085283,  0.583333335827750,  0.900599255568611 ]
    mass: 6.940000
    reduced_to: 1
  - symbol: Li # 23
    coordinates: [  0.500378947418616,  0.583333335827750,  0.900599255568611 ]
    mass: 6.940000
    reduced_to: 1
  - symbol: Li # 24
    coordinates: [  0.833712280751949,  0.583333335827750,  0.900599255568611 ]
    mass: 6.940000
    reduced_to: 1
  - symbol: Li # 25
    coordinates: [  0.167045614085283,  0.916666669161084,  0.900599255568611 ]
    mass: 6.940000
    reduced_to: 1
  - symbol: Li # 26
    coordinates: [  0.500378947418616,  0.916666669161084,  0.900599255568611 ]
    mass: 6.940000
    reduced_to: 1
  - symbol: Li # 27
    coordinates: [  0.833712280751949,  0.916666669161084,  0.900599255568611 ]
    mass: 6.940000
    reduced_to: 1
  - symbol: Li # 28
    coordinates: [  0.166287720417800,  0.083333334052694,  0.099400743713577 ]
    mass: 6.940000
    reduced_to: 28
  - symbol: Li # 29
    coordinates: [  0.499621053751133,  0.083333334052694,  0.099400743713577 ]
    mass: 6.940000
    reduced_to: 28
  - symbol: Li # 30
    coordinates: [  0.832954387084466,  0.083333334052694,  0.099400743713577 ]
    mass: 6.940000
    reduced_to: 28
  - symbol: Li # 31
    coordinates: [  0.166287720417800,  0.416666667386027,  0.099400743713577 ]
    mass: 6.940000
    reduced_to: 28
  - symbol: Li # 32
    coordinates: [  0.499621053751133,  0.416666667386027,  0.099400743713577 ]
    mass: 6.940000
    reduced_to: 28
  - symbol: Li # 33
    coordinates: [  0.832954387084466,  0.416666667386027,  0.099400743713577 ]
    mass: 6.940000
    reduced_to: 28
  - symbol: Li # 34
    coordinates: [  0.166287720417800,  0.750000000719360,  0.099400743713577 ]
    mass: 6.940000
    reduced_to: 28
  - symbol: Li # 35
    coordinates: [  0.499621053751133,  0.750000000719360,  0.099400743713577 ]
    mass: 6.940000
    reduced_to: 28
  - symbol: Li # 36
    coordinates: [  0.832954387084466,  0.750000000719360,  0.099400743713577 ]
    mass: 6.940000
    reduced_to: 28
  - symbol: Li # 37
    coordinates: [  0.166287720417800,  0.083333334052694,  0.432734077046910 ]
    mass: 6.940000
    reduced_to: 28
  - symbol: Li # 38
    coordinates: [  0.499621053751133,  0.083333334052694,  0.432734077046910 ]
    mass: 6.940000
    reduced_to: 28
  - symbol: Li # 39
    coordinates: [  0.832954387084466,  0.083333334052694,  0.432734077046910 ]
    mass: 6.940000
    reduced_to: 28
  - symbol: Li # 40
    coordinates: [  0.166287720417800,  0.416666667386027,  0.432734077046910 ]
    mass: 6.940000
    reduced_to: 28
  - symbol: Li # 41
    coordinates: [  0.499621053751133,  0.416666667386027,  0.432734077046910 ]
    mass: 6.940000
    reduced_to: 28
  - symbol: Li # 42
    coordinates: [  0.832954387084466,  0.416666667386027,  0.432734077046910 ]
    mass: 6.940000
    reduced_to: 28
  - symbol: Li # 43
    coordinates: [  0.166287720417800,  0.750000000719360,  0.432734077046910 ]
    mass: 6.940000
    reduced_to: 28
  - symbol: Li # 44
    coordinates: [  0.499621053751133,  0.750000000719360,  0.432734077046910 ]
    mass: 6.940000
    reduced_to: 28
  - symbol: Li # 45
    coordinates: [  0.832954387084466,  0.750000000719360,  0.432734077046910 ]
    mass: 6.940000
    reduced_to: 28
  - symbol: Li # 46
    coordinates: [  0.166287720417800,  0.083333334052694,  0.766067410380244 ]
    mass: 6.940000
    reduced_to: 28
  - symbol: Li # 47
    coordinates: [  0.499621053751133,  0.083333334052694,  0.766067410380244 ]
    mass: 6.940000
    reduced_to: 28
  - symbol: Li # 48
    coordinates: [  0.832954387084466,  0.083333334052694,  0.766067410380244 ]
    mass: 6.940000
    reduced_to: 28
  - symbol: Li # 49
    coordinates: [  0.166287720417800,  0.416666667386027,  0.766067410380244 ]
    mass: 6.940000
    reduced_to: 28
  - symbol: Li # 50
    coordinates: [  0.499621053751133,  0.416666667386027,  0.766067410380244 ]
    mass: 6.940000
    reduced_to: 28
  - symbol: Li # 51
    coordinates: [  0.832954387084466,  0.416666667386027,  0.766067410380244 ]
    mass: 6.940000
    reduced_to: 28
  - symbol: Li # 52
    coordinates: [  0.166287720417800,  0.750000000719360,  0.766067410380244 ]
    mass: 6.940000
    reduced_to: 28
  - symbol: Li # 53
    coordinates: [  0.499621053751133,  0.750000000719360,  0.766067410380244 ]
    mass: 6.940000
    reduced_to: 28
  - symbol: Li # 54
    coordinates: [  0.832954387084466,  0.750000000719360,  0.766067410380244 ]
    mass: 6.940000
    reduced_to: 28
  - symbol: Sn # 55
    coordinates: [  0.000067087193764,  0.249999997500874,  0.068759186144255 ]
    mass: 118.710000
    reduced_to: 55
  - symbol: Sn # 56
    coordinates: [  0.333400420527097,  0.249999997500874,  0.068759186144255 ]
    mass: 118.710000
    reduced_to: 55
  - symbol: Sn # 57
    coordinates: [  0.666733753860430,  0.249999997500874,  0.068759186144255 ]
    mass: 118.710000
    reduced_to: 55
  - symbol: Sn # 58
    coordinates: [  0.000067087193764,  0.583333330834208,  0.068759186144255 ]
    mass: 118.710000
    reduced_to: 55
  - symbol: Sn # 59
    coordinates: [  0.333400420527097,  0.583333330834208,  0.068759186144255 ]
    mass: 118.710000
    reduced_to: 55
  - symbol: Sn # 60
    coordinates: [  0.666733753860430,  0.583333330834208,  0.068759186144255 ]
    mass: 118.710000
    reduced_to: 55
  - symbol: Sn # 61
    coordinates: [  0.000067087193764,  0.916666664167541,  0.068759186144255 ]
    mass: 118.710000
    reduced_to: 55
  - symbol: Sn # 62
    coordinates: [  0.333400420527097,  0.916666664167541,  0.068759186144255 ]
    mass: 118.710000
    reduced_to: 55
  - symbol: Sn # 63
    coordinates: [  0.666733753860430,  0.916666664167541,  0.068759186144255 ]
    mass: 118.710000
    reduced_to: 55
  - symbol: Sn # 64
    coordinates: [  0.000067087193764,  0.249999997500874,  0.402092519477589 ]
    mass: 118.710000
    reduced_to: 55
  - symbol: Sn # 65
    coordinates: [  0.333400420527097,  0.249999997500874,  0.402092519477589 ]
    mass: 118.710000
    reduced_to: 55
  - symbol: Sn # 66
    coordinates: [  0.666733753860430,  0.249999997500874,  0.402092519477589 ]
    mass: 118.710000
    reduced_to: 55
  - symbol: Sn # 67
    coordinates: [  0.000067087193764,  0.583333330834208,  0.402092519477589 ]
    mass: 118.710000
    reduced_to: 55
  - symbol: Sn # 68
    coordinates: [  0.333400420527097,  0.583333330834208,  0.402092519477589 ]
    mass: 118.710000
    reduced_to: 55
  - symbol: Sn # 69
    coordinates: [  0.666733753860430,  0.583333330834208,  0.402092519477589 ]
    mass: 118.710000
    reduced_to: 55
  - symbol: Sn # 70
    coordinates: [  0.000067087193764,  0.916666664167541,  0.402092519477589 ]
    mass: 118.710000
    reduced_to: 55
  - symbol: Sn # 71
    coordinates: [  0.333400420527097,  0.916666664167541,  0.402092519477589 ]
    mass: 118.710000
    reduced_to: 55
  - symbol: Sn # 72
    coordinates: [  0.666733753860430,  0.916666664167541,  0.402092519477589 ]
    mass: 118.710000
    reduced_to: 55
  - symbol: Sn # 73
    coordinates: [  0.000067087193764,  0.249999997500874,  0.735425852810922 ]
    mass: 118.710000
    reduced_to: 55
  - symbol: Sn # 74
    coordinates: [  0.333400420527097,  0.249999997500874,  0.735425852810922 ]
    mass: 118.710000
    reduced_to: 55
  - symbol: Sn # 75
    coordinates: [  0.666733753860430,  0.249999997500874,  0.735425852810922 ]
    mass: 118.710000
    reduced_to: 55
  - symbol: Sn # 76
    coordinates: [  0.000067087193764,  0.583333330834208,  0.735425852810922 ]
    mass: 118.710000
    reduced_to: 55
  - symbol: Sn # 77
    coordinates: [  0.333400420527097,  0.583333330834208,  0.735425852810922 ]
    mass: 118.710000
    reduced_to: 55
  - symbol: Sn # 78
    coordinates: [  0.666733753860430,  0.583333330834208,  0.735425852810922 ]
    mass: 118.710000
    reduced_to: 55
  - symbol: Sn # 79
    coordinates: [  0.000067087193764,  0.916666664167541,  0.735425852810922 ]
    mass: 118.710000
    reduced_to: 55
  - symbol: Sn # 80
    coordinates: [  0.333400420527097,  0.916666664167541,  0.735425852810922 ]
    mass: 118.710000
    reduced_to: 55
  - symbol: Sn # 81
    coordinates: [  0.666733753860430,  0.916666664167541,  0.735425852810922 ]
    mass: 118.710000
    reduced_to: 55
  - symbol: Sn # 82
    coordinates: [  0.333266244939301,  0.083333332603261,  0.264574147928301 ]
    mass: 118.710000
    reduced_to: 82
  - symbol: Sn # 83
    coordinates: [  0.666599578272634,  0.083333332603261,  0.264574147928301 ]
    mass: 118.710000
    reduced_to: 82
  - symbol: Sn # 84
    coordinates: [  0.999932911605968,  0.083333332603261,  0.264574147928301 ]
    mass: 118.710000
    reduced_to: 82
  - symbol: Sn # 85
    coordinates: [  0.333266244939301,  0.416666665936594,  0.264574147928301 ]
    mass: 118.710000
    reduced_to: 82
  - symbol: Sn # 86
    coordinates: [  0.666599578272634,  0.416666665936594,  0.264574147928301 ]
    mass: 118.710000
    reduced_to: 82
  - symbol: Sn # 87
    coordinates: [  0.999932911605968,  0.416666665936594,  0.264574147928301 ]
    mass: 118.710000
    reduced_to: 82
  - symbol: Sn # 88
    coordinates: [  0.333266244939301,  0.749999999269927,  0.264574147928301 ]
    mass: 118.710000
    reduced_to: 82
  - symbol: Sn # 89
    coordinates: [  0.666599578272634,  0.749999999269927,  0.264574147928301 ]
    mass: 118.710000
    reduced_to: 82
  - symbol: Sn # 90
    coordinates: [  0.999932911605968,  0.749999999269927,  0.264574147928301 ]
    mass: 118.710000
    reduced_to: 82
  - symbol: Sn # 91
    coordinates: [  0.333266244939301,  0.083333332603261,  0.597907481261634 ]
    mass: 118.710000
    reduced_to: 82
  - symbol: Sn # 92
    coordinates: [  0.666599578272634,  0.083333332603261,  0.597907481261634 ]
    mass: 118.710000
    reduced_to: 82
  - symbol: Sn # 93
    coordinates: [  0.999932911605968,  0.083333332603261,  0.597907481261634 ]
    mass: 118.710000
    reduced_to: 82
  - symbol: Sn # 94
    coordinates: [  0.333266244939301,  0.416666665936594,  0.597907481261634 ]
    mass: 118.710000
    reduced_to: 82
  - symbol: Sn # 95
    coordinates: [  0.666599578272634,  0.416666665936594,  0.597907481261634 ]
    mass: 118.710000
    reduced_to: 82
  - symbol: Sn # 96
    coordinates: [  0.999932911605968,  0.416666665936594,  0.597907481261634 ]
    mass: 118.710000
    reduced_to: 82
  - symbol: Sn # 97
    coordinates: [  0.333266244939301,  0.749999999269927,  0.597907481261634 ]
    mass: 118.710000
    reduced_to: 82
  - symbol: Sn # 98
    coordinates: [  0.666599578272634,  0.749999999269927,  0.597907481261634 ]
    mass: 118.710000
    reduced_to: 82
  - symbol: Sn # 99
    coordinates: [  0.999932911605968,  0.749999999269927,  0.597907481261634 ]
    mass: 118.710000
    reduced_to: 82
  - symbol: Sn # 100
    coordinates: [  0.333266244939301,  0.083333332603261,  0.931240814594967 ]
    mass: 118.710000
    reduced_to: 82
  - symbol: Sn # 101
    coordinates: [  0.666599578272634,  0.083333332603261,  0.931240814594967 ]
    mass: 118.710000
    reduced_to: 82
  - symbol: Sn # 102
    coordinates: [  0.999932911605968,  0.083333332603261,  0.931240814594967 ]
    mass: 118.710000
    reduced_to: 82
  - symbol: Sn # 103
    coordinates: [  0.333266244939301,  0.416666665936594,  0.931240814594967 ]
    mass: 118.710000
    reduced_to: 82
  - symbol: Sn # 104
    coordinates: [  0.666599578272634,  0.416666665936594,  0.931240814594967 ]
    mass: 118.710000
    reduced_to: 82
  - symbol: Sn # 105
    coordinates: [  0.999932911605968,  0.416666665936594,  0.931240814594967 ]
    mass: 118.710000
    reduced_to: 82
  - symbol: Sn # 106
    coordinates: [  0.333266244939301,  0.749999999269927,  0.931240814594967 ]
    mass: 118.710000
    reduced_to: 82
  - symbol: Sn # 107
    coordinates: [  0.666599578272634,  0.749999999269927,  0.931240814594967 ]
    mass: 118.710000
    reduced_to: 82
  - symbol: Sn # 108
    coordinates: [  0.999932911605968,  0.749999999269927,  0.931240814594967 ]
    mass: 118.710000
    reduced_to: 82

displacements:
- atom:    1
  displacement:
    [   0.0055961630380401,  0.0082875182806238,  0.0000000000000000 ]
  forces:
  - [  -0.0147110465914011, -0.0146306296810508,  0.0411595925688744 ]
  - [  -0.0051267948001623, -0.0002740696072578,  0.0412351600825787 ]
  - [  -0.0051278509199619, -0.0002740882337093,  0.0411611124873161 ]
  - [  -0.0055622588843107,  0.0003130704280920,  0.0412769578397274 ]
  - [  -0.0063613932579756, -0.0010264124721289,  0.0414548888802528 ]
  - [  -0.0054363831877708, -0.0003970433026552,  0.0413017272949219 ]
  - [  -0.0055642724037170,  0.0003184430825058,  0.0411218591034412 ]
  - [  -0.0054327743127942, -0.0003991648554802,  0.0410976335406303 ]
  - [  -0.0063511226326227, -0.0010141357779503,  0.0409464836120605 ]
  - [  -0.0054414700716734,  0.0000219162302528,  0.0411952733993530 ]
  - [  -0.0059767332859337,  0.0000043809413910,  0.0407621003687382 ]
  - [  -0.0059781558811665,  0.0000041238963604,  0.0416375398635864 ]
  - [  -0.0057057356461883, -0.0000106182596937,  0.0412078425288200 ]
  - [  -0.0056698871776462, -0.0000070426613092,  0.0412022694945335 ]
  - [  -0.0057041402906179,  0.0000013764947653,  0.0411844290792942 ]
  - [  -0.0057054031640291, -0.0000084817766037,  0.0411876030266285 ]
  - [  -0.0057045910507441,  0.0000024307519197,  0.0412121973931789 ]
  - [  -0.0056698080152273, -0.0000057648867369,  0.0411947518587112 ]
  - [  -0.0054416079074144,  0.0000222171056521,  0.0412005335092545 ]
  - [  -0.0059752147644758,  0.0000044666230679,  0.0415822044014931 ]
  - [  -0.0059785963967443,  0.0000045280903578,  0.0408108159899712 ]
  - [  -0.0057054953649640, -0.0000097466936495,  0.0412007495760918 ]
  - [  -0.0056924605742097,  0.0000093895941973,  0.0412003248929977 ]
  - [  -0.0056805508211255, -0.0000141263008118,  0.0412060394883156 ]
  - [  -0.0057055177167058, -0.0000092064346973,  0.0411986112594604 ]
  - [  -0.0056801647879183, -0.0000133756548166,  0.0411936268210411 ]
  - [  -0.0056926663964987,  0.0000095106661320,  0.0411986708641052 ]
  - [   0.0054757073521614,  0.0004621452826541, -0.0403812080621719 ]
  - [   0.0056978436186910,  0.0000188088924915, -0.0412534326314926 ]
  - [   0.0057244640775025,  0.0000417932023993, -0.0412156097590923 ]
  - [   0.0054599922150373,  0.0004604417481460, -0.0420207045972347 ]
  - [   0.0057385531254113,  0.0000463695323560, -0.0411948785185814 ]
  - [   0.0056938617490232,  0.0000209908466786, -0.0411458425223827 ]
  - [   0.0057072620838881, -0.0000269526535703, -0.0412005335092545 ]
  - [   0.0056860782206059, -0.0000145708763739, -0.0411971583962440 ]
  - [   0.0056850258260965, -0.0000136264134198, -0.0412049479782581 ]
  - [   0.0053667370229959, -0.0002557028201409, -0.0413357466459274 ]
  - [   0.0057088430039585,  0.0001809608656913, -0.0410161763429642 ]
  - [   0.0058690980076790,  0.0002865239512175, -0.0411422848701477 ]
  - [   0.0053616696968675, -0.0002506384334993, -0.0410574302077293 ]
  - [   0.0058836406096816,  0.0002989700587932, -0.0412482731044292 ]
  - [   0.0057102190330625,  0.0001791617833078, -0.0413860976696014 ]
  - [   0.0056628659367561,  0.0000133205121529, -0.0412017181515694 ]
  - [   0.0057078134268522,  0.0000014665256458, -0.0412059463560581 ]
  - [   0.0057082804851234,  0.0000018037389964, -0.0411966741085052 ]
  - [   0.0056859040632844,  0.0000009266766483, -0.0412208177149296 ]
  - [   0.0057042762637138,  0.0000047313046707, -0.0412188917398453 ]
  - [   0.0056890351697803, -0.0000053641442719, -0.0412045940756798 ]
  - [   0.0056865103542805,  0.0000013368096461, -0.0411808975040913 ]
  - [   0.0056885932572186, -0.0000048946330935, -0.0411974713206291 ]
  - [   0.0057041794061661,  0.0000054389238358, -0.0411841496825218 ]
  - [   0.0056985458359122, -0.0000031260296964, -0.0412015132606030 ]
  - [   0.0056902342475951, -0.0000008853144209, -0.0412025973200798 ]
  - [   0.0056902864016593, -0.0000007413327694, -0.0412021130323410 ]
  - [   0.0002376962947892,  0.0001531398738734,  0.0362647846341133 ]
  - [   0.0002423527184874,  0.0001329209189862,  0.0310916546732187 ]
  - [  -0.0013350758235902,  0.0000110359978862,  0.0336961895227432 ]
  - [  -0.0011046263389289, -0.0000618631020188,  0.0335858538746834 ]
  - [  -0.0012450106441975,  0.0000522546470165,  0.0335582457482815 ]
  - [  -0.0011843831744045,  0.0000039857695810,  0.0336468666791916 ]
  - [  -0.0012476614210755,  0.0000496028224006,  0.0338422060012817 ]
  - [  -0.0011063511483371, -0.0000566149246879,  0.0338156558573246 ]
  - [  -0.0011850541923195,  0.0000049974187277,  0.0337519235908985 ]
  - [   0.0000800328125479, -0.0009075538255274,  0.0314438380300999 ]
  - [   0.0000718734736438, -0.0009458528365940,  0.0359779521822929 ]
  - [  -0.0013980771182105, -0.0001005083322525,  0.0337020643055439 ]
  - [  -0.0012147406814620, -0.0001102162059397,  0.0336583368480206 ]
  - [  -0.0012782022822648, -0.0002430365420878,  0.0337276309728622 ]
  - [  -0.0011303409701213,  0.0000580521300435,  0.0338074453175068 ]
  - [  -0.0012790937907994, -0.0002367710112594,  0.0336760841310024 ]
  - [  -0.0012121046893299, -0.0001082886010408,  0.0337421298027039 ]
  - [  -0.0011315649608150,  0.0000588455004618,  0.0335969589650631 ]
  - [  -0.0012007503537461, -0.0000097975134850,  0.0336881801486015 ]
  - [  -0.0012011725921184, -0.0000094716006060,  0.0337135680019855 ]
  - [  -0.0011519041145220, -0.0000043563777581,  0.0336997322738171 ]
  - [  -0.0011823847889900,  0.0000060824677348,  0.0336930565536022 ]
  - [  -0.0011839554645121,  0.0000021274900064,  0.0336931906640530 ]
  - [  -0.0011876090429723,  0.0000011678785086,  0.0336989611387253 ]
  - [  -0.0011833508033305,  0.0000036824494600,  0.0337096042931080 ]
  - [  -0.0011825077235699,  0.0000073225237429,  0.0337112769484520 ]
  - [  -0.0011877821525559,  0.0000033944379538,  0.0337015464901924 ]
  - [  -0.0009320005774498,  0.0024286885745823, -0.0339773558080196 ]
  - [   0.0009963102638721, -0.0001418693573214, -0.0336979106068611 ]
  - [   0.0057980492711067,  0.0064589781686664, -0.0338955782353878 ]
  - [   0.0059970598667860,  0.0067991707473993, -0.0334326475858688 ]
  - [   0.0009842237923294, -0.0001409810502082, -0.0336975567042828 ]
  - [  -0.0008970638155006,  0.0023770018015057, -0.0334236845374107 ]
  - [   0.0011789686977863,  0.0001129917800426, -0.0337472222745419 ]
  - [   0.0011911995243281,  0.0000602296786383, -0.0337001830339432 ]
  - [   0.0011809002608061,  0.0001094117178582, -0.0336567424237728 ]
  - [   0.0011779817286879, -0.0000153856162797, -0.0336927026510239 ]
  - [   0.0012029816862196,  0.0000021841351554, -0.0336904786527157 ]
  - [   0.0011730785481632,  0.0000222609796765, -0.0336938872933388 ]
  - [   0.0011742410715669,  0.0000217714114115, -0.0337069258093834 ]
  - [   0.0012029437348247,  0.0000024678884074, -0.0337051227688789 ]
  - [   0.0011772771831602, -0.0000157525064424, -0.0337070301175117 ]
  - [   0.0011867524590343, -0.0000078575103544, -0.0337072350084782 ]
  - [   0.0011833994649351, -0.0000041364692152, -0.0336986780166626 ]
  - [   0.0011839361395687, -0.0000080948811956, -0.0336935482919216 ]
  - [   0.0011307019740343,  0.0000572279095650, -0.0336372032761574 ]
  - [   0.0012407936155796,  0.0000027889116154, -0.0337021574378014 ]
  - [   0.0011585110332817,  0.0000160848721862, -0.0337022021412849 ]
  - [   0.0011600041761994,  0.0000156635069288, -0.0336965844035149 ]
  - [   0.0012405344750732,  0.0000020295265131, -0.0336926206946373 ]
  - [   0.0011337744072080,  0.0000594611628912, -0.0337574407458305 ]
  - [   0.0011838795617223, -0.0000171553692780, -0.0336907990276814 ]
  - [   0.0011863836552948, -0.0000051633687690, -0.0336980745196342 ]
  - [   0.0011834623292089, -0.0000169448321685, -0.0337066799402237 ]
- atom:    1
  displacement:
    [  -0.0055961630380401, -0.0082875182806238,  0.0000000000000000 ]
  forces:
  - [   0.0033227242529392,  0.0146261341869831,  0.0411682538688183 ]
  - [  -0.0062572611495852,  0.0002741273492575,  0.0411630868911743 ]
  - [  -0.0062585687264800,  0.0002740211784840,  0.0412366986274719 ]
  - [  -0.0058228913694620, -0.0003172478172928,  0.0411208979785442 ]
  - [  -0.0050314464606345,  0.0010127872228622,  0.0409486666321754 ]
  - [  -0.0059495028108358,  0.0003976207226515,  0.0410976260900497 ]
  - [  -0.0058225151151419, -0.0003138735482935,  0.0412761606276035 ]
  - [  -0.0059508988633752,  0.0003988388925791,  0.0413017496466637 ]
  - [  -0.0050259558483958,  0.0010285228490829,  0.0414572432637215 ]
  - [  -0.0059436429291964, -0.0000223284732783,  0.0411981046199799 ]
  - [  -0.0054083084687591, -0.0000050142407417,  0.0416361540555954 ]
  - [  -0.0054105455055833, -0.0000048056244850,  0.0407613739371300 ]
  - [  -0.0056803757324815,  0.0000088922715804,  0.0411880984902382 ]
  - [  -0.0057167382910848,  0.0000061523169279,  0.0411945842206478 ]
  - [  -0.0056824516505003, -0.0000025015324354,  0.0412127450108528 ]
  - [  -0.0056800339370966,  0.0000111640129035,  0.0412078090012074 ]
  - [  -0.0056828986853361, -0.0000008996576071,  0.0411838442087173 ]
  - [  -0.0057169944047928,  0.0000074040144682,  0.0412021949887276 ]
  - [  -0.0059439791366458, -0.0000219649209612,  0.0412000790238380 ]
  - [  -0.0054072048515081, -0.0000044889748096,  0.0408125519752502 ]
  - [  -0.0054103275761008, -0.0000047963112593,  0.0415841117501259 ]
  - [  -0.0056801326572895,  0.0000096969533843,  0.0411984100937843 ]
  - [  -0.0056926524266601, -0.0000093746930361,  0.0411991514265537 ]
  - [  -0.0057054804638028,  0.0000140424817801,  0.0411939062178135 ]
  - [  -0.0056802919134498,  0.0000103448892332,  0.0412008985877037 ]
  - [  -0.0057054082863033,  0.0000146962702274,  0.0412057340145111 ]
  - [  -0.0056930193677545, -0.0000086240470409,  0.0412010960280895 ]
  - [   0.0059135798364878, -0.0004692708898801, -0.0420266017317772 ]
  - [   0.0056895697489381, -0.0000205746946449, -0.0411491505801678 ]
  - [   0.0056539429351687, -0.0000448968494311, -0.0411923490464687 ]
  - [   0.0059227240271866, -0.0004542644601315, -0.0403872244060040 ]
  - [   0.0056547755375504, -0.0000441926531494, -0.0412117131054401 ]
  - [   0.0056892456486821, -0.0000209263525903, -0.0412584096193314 ]
  - [   0.0056789396330714,  0.0000268210606009, -0.0412004292011261 ]
  - [   0.0057003409601748,  0.0000142109147419, -0.0412040650844574 ]
  - [   0.0056989965960383,  0.0000135528389364, -0.0411984473466873 ]
  - [   0.0060224402695894,  0.0002499266411178, -0.0410578995943069 ]
  - [   0.0056745242327452, -0.0001800071477192, -0.0413877218961716 ]
  - [   0.0055125914514065, -0.0002921072300524, -0.0412575155496597 ]
  - [   0.0060199359431863,  0.0002563137095422, -0.0413349904119968 ]
  - [   0.0055069215595722, -0.0002931449562311, -0.0411521419882774 ]
  - [   0.0056782099418342, -0.0001801401376724, -0.0410158932209015 ]
  - [   0.0057228091172874, -0.0000134914189402, -0.0412022024393082 ]
  - [   0.0056780967861414, -0.0000013344065337, -0.0411973409354687 ]
  - [   0.0056779803708196, -0.0000021050218493, -0.0412046685814857 ]
  - [   0.0057010091841221, -0.0000017372581169, -0.0411808788776398 ]
  - [   0.0056817475706339, -0.0000061965829445, -0.0411840118467808 ]
  - [   0.0056966831907630,  0.0000042375741032, -0.0411983877420425 ]
  - [   0.0057011405006051, -0.0000016104786482, -0.0412209406495094 ]
  - [   0.0056965667754412,  0.0000045921824494, -0.0412051901221275 ]
  - [   0.0056814411655068, -0.0000055443961173, -0.0412193313241005 ]
  - [   0.0056888642720878,  0.0000022935341804, -0.0412015356123447 ]
  - [   0.0056950328871608,  0.0000006978825695, -0.0412020161747932 ]
  - [   0.0056951306760311,  0.0000006237532943, -0.0412027910351753 ]
  - [  -0.0026025678962469, -0.0001442176871933,  0.0311313904821873 ]
  - [  -0.0026142911519855, -0.0001428013201803,  0.0363029688596725 ]
  - [  -0.0010351911187172, -0.0000107511295937,  0.0336983911693096 ]
  - [  -0.0012638655025512,  0.0000610875431448,  0.0338164344429970 ]
  - [  -0.0011230693198740, -0.0000517703592777,  0.0338415391743183 ]
  - [  -0.0011855843476951, -0.0000042554456741,  0.0337523780763149 ]
  - [  -0.0011212262324989, -0.0000485778436996,  0.0335565581917763 ]
  - [  -0.0012616829480976,  0.0000601211213507,  0.0335853844881058 ]
  - [  -0.0011860185768455, -0.0000024030450732,  0.0336467996239662 ]