5
Lattice="4.1166459890117055 -0.0010554827968871122 1.7432832125251834 1.9490591650118714 4.67970166110577 1.1302108018259727 0.16912734616390152 -0.007589419909507106 5.335669966809513" Properties=species:S:1:pos:R:3:forces:R:3 structure_index=0 total_energy=-15.419807434082031 stress="0.061201103031635284 0.00809399876743555 0.04251542314887047 0.00809407513588667 0.046260952949523926 -0.022758401930332184 0.04251547157764435 -0.022758327424526215 -0.02160319685935974" pbc="T T T"
Li       3.07433612       3.21430671       6.27533750      -0.00801400      -0.03943730       0.01035246
Li       4.26570675       2.26597887       3.45274946      -0.00014746       0.00102456      -0.00039396
Li       1.51109559       1.31090189       4.22270173       0.00629172       0.04100887      -0.01232667
Sn       2.64744987       0.42691629       1.53773901       0.01593900      -0.00605321      -0.03314620
Sn       5.88339332       4.10650757       5.36447436      -0.01406926       0.00345708       0.03551436
8
Lattice="4.854369965373222 -0.0010157108422947621 0.0008746701361799584 0.0008598048302475086 5.193832444992993 -2.9979195350914667 -0.0016621861614108469 0.0002231609739594083 5.99735439703806" Properties=species:S:1:pos:R:3:forces:R:3 structure_index=1 total_energy=-22.158203125 stress="-0.042675040662288666 -0.0006842465954832733 -0.0008337257895618677 -0.0006842781440354884 -0.009732688777148724 0.00023359071929007769 -0.0008337183971889317 0.00023373034491669387 -0.00922976154834032" pbc="T T T"
Li       1.59185307       2.92497102       3.92735173       0.00026503       0.01631720      -0.02693949
Li       1.59231628       0.18775108       5.50590786      -0.00031386      -0.03024783       0.00168661
Li       4.01978043       1.09908217       3.92560547      -0.00018062      -0.01414175      -0.02533568
Li       4.02063898       1.10114664       1.09100033      -0.00034016      -0.01640408       0.02618396
Li       4.02006063       3.83821599      -0.48824818       0.00042004       0.03035111      -0.00127519
Li       1.59267426       2.92703171       1.09227802       0.00016377       0.01396580       0.02550208
Sn       1.59278234       0.28164835       2.50779685      -0.00009543       0.00009251      -0.00045285
Sn       4.01966482       3.74437555       2.51004868       0.00008123       0.00006708       0.00063056
8
Lattice="4.85613239378335 -0.0010061448827695283 0.0014526108072436394 0.001803372262131235 5.189377884594871 -2.995412974198097 -0.002103464847324512 -0.0018705146780136283 5.9932134976173606" Properties=species:S:1:pos:R:3:forces:R:3 structure_index=2 total_energy=-22.15740203857422 stress="-0.04533981531858444 -0.0003587681567296386 -0.0006052186945453286 -0.0003588436811696738 -0.03637879341840744 -0.00019304534362163395 -0.0006052168319001794 -0.0001929596473928541 -0.03547770529985428" pbc="T T T"
Li       4.16387854       2.75055595       1.29547362       0.00021074       0.03886028      -0.00110960
Li       1.73630556       1.84247029      -0.28341228       0.00002617       0.02018083      -0.03342772
Li       4.16334531       0.02100668       2.87089015      -0.00024269      -0.01933065       0.03278318
Li       1.73723314       4.30278193      -1.70386610       0.00010577      -0.03911890       0.00144078
Li       4.16203120       0.01924807       5.70959533       0.00013559      -0.01828694      -0.03239965
Li       1.73533113       1.84276141       2.87036608      -0.00006326       0.01842189       0.03317322
Sn       4.16294526       2.66025049       4.29147330      -0.00003672      -0.00049923       0.00039171
Sn       1.73630380       4.39141647       1.29360927      -0.00013560      -0.00022728      -0.00085190
10
Lattice="4.344942735262277 0.002004244041329353 1.4374195420540996 2.677302671589262 4.577061810768528 -0.8134749366935317 -0.6185230097319736 -0.11769177792188729 9.154876834378191" Properties=species:S:1:pos:R:3:forces:R:3 structure_index=3 total_energy=-29.04412269592285 stress="0.002301143715158105 -0.0003261163074057549 0.006096796132624149 -0.0003260534431319684 0.008873936720192432 0.0009750491008162498 0.006096673663705587 0.0009749459568411112 -0.014038392342627048" pbc="T T T"
Li       3.39139012       0.37815018       9.32034057       0.04304669       0.00853566       0.02612743
Li       2.36876701       2.71717966       5.40846004      -0.03344175      -0.00108364      -0.00857094
Li       4.03265281       2.45474281       7.70007700      -0.04777155      -0.01969068      -0.01246359
Li       5.19583991       2.52606210       4.14748764      -0.03108926       0.00135509      -0.01265846
Li       4.53764364       0.33442556       5.87742903       0.03842534      -0.00012738       0.01292157
Li       3.55328011       2.78901597       1.86354891      -0.04569484       0.01938480      -0.01918679
Li       1.32658472       0.28834819       0.99345927       0.04900562      -0.00905202       0.00427241
Sn       2.93485971       0.49862036       3.47845078       0.03399658       0.00431840      -0.00361357
Sn       1.81984497       0.16752097       6.84704799       0.02604045      -0.00401889       0.02397165
Sn       1.29657625       2.56170806       8.63548531      -0.03251731       0.00037866      -0.01079966
15
Lattice="4.42580140758293 -0.0020485162583903536 -1.3448369729441325 -0.4319693583618761 8.20866001449835 -1.4340974583693262 -0.06686360013202775 -0.20719964555137407 7.7356314391443215" Properties=species:S:1:pos:R:3:forces:R:3 structure_index=4 total_energy=-42.252708435058594 stress="0.015113495290279388 0.000523874070495367 -0.0006841124850325286 0.0005237499717622995 0.014946644194424152 0.001682002330198884 -0.0006841981085017323 0.0016820752061903477 0.013071946799755096" pbc="T T T"
Li       3.41935199       6.81335927      -1.29145716      -0.01039694       0.01471703      -0.03448085
Li       2.54909229       5.98970220       3.80096236      -0.00942928       0.00524648      -0.03120280
Li       2.66324016       0.42977895       4.18480369       0.00000544       0.00000090      -0.00000167
Li       1.54203173       2.46209602       0.49135027       0.01040177      -0.01471313       0.03448200
Li       2.34543058       3.07853175       3.13457008       0.00943299      -0.00524005       0.03120845
Li       4.13395081       3.93961580       1.06424356       0.01466073       0.00898983       0.04839984
Li       0.82744036       5.33583670      -1.86432835      -0.01465751      -0.00898162      -0.04840209
Li       0.66961470       2.23182293       5.57598955       0.00721646      -0.00228610       0.02385730
Li      -0.20088967       6.83848063       2.70437119      -0.00722611       0.00227683      -0.02386582
Li       1.86818744      -0.10628360       1.56906683      -0.00022358      -0.01001505      -0.00067966
Li       3.52516555       1.17307675      -0.93509100       0.00022069       0.01001410       0.00068925
Sn       0.54073816       7.79864860       5.14360002      -0.00229694      -0.00313637      -0.00758316
Sn       1.68079216       5.33112005       0.94404746      -0.00758871      -0.01298843      -0.02500730
Sn       3.21373796       3.73713866       5.99150087       0.00758198       0.01298645       0.02499439
Sn       4.35378301       1.26960046       1.79192055       0.00229896       0.00312911       0.00759209
6
Lattice="4.203719221098065 -0.011524787159586753 -2.0696157925715295 -2.790771732170059 4.645999938706894 -0.4021711658144225 0.061402721257043984 -0.1009145614320331 5.432122052254552" Properties=species:S:1:pos:R:3:forces:R:3 structure_index=5 total_energy=-15.280414581298828 stress="-0.018091263249516487 -0.02367541193962097 0.02187405899167061 -0.02367536909878254 -0.008323795162141323 -0.06960461288690567 0.02187420055270195 -0.06960444152355194 0.016664424911141396" pbc="T T T"
Li      -0.63212569       3.41250202      -0.51686333      -0.00521219      -0.01968692      -0.00861296
Li      -1.88518613       3.78036289       2.24288560       0.00033879      -0.00209457      -0.00017126
Li       1.06787024       4.13290604       2.93424292       0.00251867       0.02190615       0.00577423
Li       2.91553371       1.09702882       1.40406722       0.00394319       0.01650924       0.01723976
Li       0.30776642       1.80473311       1.41312121      -0.00234544      -0.01817727      -0.01361692
Sn       1.58145644       1.50032976      -1.30634821       0.00075700       0.00154331      -0.00061283
8
Lattice="4.651871226011036 0.007939134505785053 0.0002836888960927008 -0.009326402871901042 4.6539772871322755 -0.001999297279872492 -0.0004402127974096786 0.0026525021239317027 6.565950411260134" Properties=species:S:1:pos:R:3:forces:R:3 structure_index=6 total_energy=-22.50849723815918 stress="-0.02100520394742489 -0.001806976622901857 -2.517829489079304e-05 -0.0018070219084620476 -0.01216408982872963 0.0004176533257123083 -2.5254921638406813e-05 0.00041757887811399996 -0.02080797404050827" pbc="T T T"
Li       4.08655966       3.33753432       3.23086075      -0.00052914       0.00889954      -0.00143727
Li       4.09087755       1.01424977       1.58849942      -0.00022843       0.01439150       0.00201733
Li       1.76026328       3.39036681       1.58881667       0.00015117      -0.01492415      -0.00129989
Li       4.09076545       1.01488427       4.87328592      -0.00046209       0.01595375      -0.00202176
Li       1.76436967       1.06914570       6.51315844       0.00020462      -0.00815816       0.00054545
Li       1.76000046       3.39226112       4.87022890       0.00025565      -0.01623511       0.00218154
Sn       4.08592554       3.34312999       6.51263280       0.00003663       0.02171474       0.00024534
Sn       1.76463669       1.06401519       3.23080294       0.00057161      -0.02164211      -0.00023073
4
Lattice="3.5957905169399 0.0020985176997593345 -0.00041446132986291327 -0.0007092857639699752 4.528829401560658 -0.0005789227889538421 0.00200059019139163 0.0005149833809921999 4.532678763676323" Properties=species:S:1:pos:R:3:forces:R:3 structure_index=7 total_energy=-11.043638229370117 stress="-0.03917274996638298 0.0062722815200686455 0.0048284949734807014 0.006272466387599707 0.06014036759734154 -8.411893213633448e-05 0.0048285722732543945 -8.410566806560382e-05 0.09837866574525833" pbc="T T T"
Li       3.38200618       2.70005774       0.22460477      -0.00043724      -0.00024797      -0.00003925
Li       3.38340652       0.43514090       2.49158380      -0.00049914       0.00042795      -0.00027126
Li       1.58547261       2.69853135       2.49090787      -0.00074365       0.00015237       0.00031536
Sn       1.58364480       0.43454975       0.22533591       0.00168005      -0.00033237      -0.00000486
12
Lattice="4.570998268696105 0.0036724179107562945 -0.0003592029631129657 -0.004980420619453161 5.8313431814049945 -0.004260609724268905 0.0008007431223091537 0.0014283095028358444 8.538487785082436" Properties=species:S:1:pos:R:3:forces:R:3 structure_index=8 total_energy=-35.560523986816406 stress="-0.018417898565530777 -0.00031968727125786245 2.0079145542695187e-05 -0.0003199197235517204 -0.018868742510676384 -0.00032419300987385213 2.0046938516316004e-05 -0.0003240736841689795 -0.012101047672331333" pbc="T T T"
Li       2.65690414       0.76239071       2.07763252      -0.00031655       0.02129456       0.04162823
Li       0.37142877       0.25514319       6.21112888       0.00019581      -0.02464726      -0.04294121
Li       0.36744015       5.40301097       3.31825322      -0.00028384      -0.01660632      -0.04084334
Li       0.36809044       3.17118302       6.34430748       0.00095036      -0.02499022       0.04201246
Li       2.65322505       4.35585939       7.58821144       0.00026631       0.01856451      -0.04140004
Li       2.65356315       3.67676383       1.93660298       0.00050970       0.02330380      -0.04110495
Li       0.36962296       2.48795700       0.69298650      -0.00047573      -0.01775296       0.04240625
Li       2.65601228       1.44097883       4.96480397       0.00001048       0.01786921       0.04096778
Sn       0.36959755       2.48436417       3.56381726      -0.00001392      -0.00408346       0.02644742
Sn       0.36659654       5.39942620       0.44860257       0.00017233      -0.00362677      -0.02631739
Sn       2.65362999       4.35977311       4.71811331      -0.00042536       0.00519207      -0.02618511
Sn       2.65659398       1.44407988       7.83464310      -0.00058959       0.00548286       0.02532989
6
Lattice="4.934646444757522 0.0017690772864341372 -0.0031595351724709826 -0.0027033738063578666 4.408243950595306 -1.7359907712139058 0.0032384976663093813 -0.4127501137691207 5.416703799429078" Properties=species:S:1:pos:R:3:forces:R:3 structure_index=9 total_energy=-17.820301055908203 stress="0.05429679527878761 -3.7337533285608515e-05 -0.00020823672821279615 -3.729624950210564e-05 -0.023183127865195274 -0.003170797135680914 -0.00020825739193242043 -0.003170630196109414 -0.03026544116437435" pbc="T T T"
Li       2.88390540       0.81310165       0.52903058       0.00006099       0.00049721       0.00022952
Li       0.41619615       3.02801329      -0.30998276      -0.00009938      -0.00022179      -0.00016622
Li       2.88603013       2.02334159       3.60255890      -0.00029816       0.00053445      -0.00007403
Li       0.41704512       1.40495757       2.03327528       0.00041110      -0.00018876      -0.00004674
Sn       2.88394429       3.58974978       1.11407848      -0.00030023       0.01979879       0.05248614
Sn       0.41948150      -0.16117470       4.52169663       0.00022569      -0.02041991      -0.05242864
9
Lattice="4.260459302074189 -0.0019038546268139115 1.4514500042402076 2.097304051064223 6.647111130415915 0.8320271424424848 -0.037395869000929276 -0.060493449290143275 7.086490644356909" Properties=species:S:1:pos:R:3:forces:R:3 structure_index=10 total_energy=-29.80926513671875 stress="-0.025978798046708107 -0.0017452760366722941 -0.0008925300789996982 -0.0017452375032007694 -0.024153396487236023 0.004843735136091709 -0.0008926012669689953 0.004843616858124733 -0.023497706279158592" pbc="T T T"
Li       1.46293803       1.92476864       2.52038673      -0.00941248       0.02031258       0.02294595
Li       5.68273005       6.18084095       4.09266136       0.00154329      -0.02940557      -0.00443462
Li       2.16917055       3.88542137       7.41480552       0.00891610      -0.02036032      -0.02140526
Li       4.30442379       6.27326336       8.13083215      -0.00092341       0.03126765       0.00314105
Sn       4.22167193       1.64326746       8.36562216      -0.00007574       0.04753952       0.00632231
Sn       3.67010022       4.16591385       3.02366826      -0.00026244      -0.04860326      -0.00656547
Sn       2.90261312       1.81415943       5.26970910      -0.01295069       0.01722786       0.03202510
Sn       2.86280925       6.22868193       5.38535525       0.00165637       0.00135485       0.00005879
Sn       4.98988219       3.99643417       6.11883535       0.01150899      -0.01933332      -0.03208784
4
Lattice="3.2943871621827103 0.0038752795478080838 -0.9128462852740491 -0.6805208932688972 5.033070800520814 -2.434347846804457 -0.055066247140365 -0.15670727810278637 6.203721838586295" Properties=species:S:1:pos:R:3:forces:R:3 structure_index=11 total_energy=-14.372344017028809 stress="0.0006239512586034834 -0.00895758904516697 -0.014597325585782528 -0.00895758718252182 0.004627306014299393 -0.03402639925479889 -0.01459728553891182 -0.03402644768357277 -0.04725229740142822" pbc="T T T"
Li       0.18274925       1.49411003       2.34128168       0.00109819      -0.00973351       0.00351097
Sn       1.47939387       4.08505567       0.63483467      -0.00259036       0.01740177      -0.01138014
Sn       1.10840674       1.22598932      -0.72732264       0.00260907      -0.00033929       0.01398494
Sn       2.37176392       3.66334905      -2.55093221      -0.00111690      -0.00732897      -0.00611578
9
Lattice="4.703349260529925 -0.001169443143187622 0.0031408231341124916 -2.3529658012712376 4.072750719851603 -0.0026998107825355984 -0.004785361113349873 0.0029699142633678715 11.371710677292864" Properties=species:S:1:pos:R:3:forces:R:3 structure_index=12 total_energy=-30.95046043395996 stress="-0.004643961787223816 -0.0012960605090484023 0.0017472868785262108 -0.0012962085893377662 -0.005402608308941126 0.00015238058404065669 0.0017472227336838841 0.00015221204375848174 -0.01938549615442753" pbc="T T T"
Li       2.17875661       1.22523030       9.73430588       0.00068331      -0.00029518      -0.00434885
Li       2.18119626       3.93861994       5.73338911      -0.00105984      -0.00013051      -0.03112187
Li       2.18143182       1.22418917       4.03961429      -0.00074057      -0.00028286       0.03423825
Sn      -0.17078624       2.58180052       4.90404425       0.00127184       0.00027864       0.01810372
Sn       2.18144883       1.22385607       6.93962990       0.00016195       0.00007085       0.01246070
Sn      -0.17258561       2.58285350      10.78358600       0.00005979      -0.00011034      -0.01258751
Sn       2.17821281       3.93980370       8.71482361      -0.00024326       0.00008666       0.00197477
Sn       2.18330809       1.22222195       1.13140940      -0.00051503       0.00056369       0.00566616
Sn       2.18011067       3.93855030       2.73628947       0.00038181      -0.00018097      -0.02438534
9
Lattice="4.183791488921999 -0.002746241137247865 1.3599239296879246 2.2607983230571023 6.516499650305874 0.17314972334575868 0.07168802542765002 0.09042108903176596 6.896925860698412" Properties=species:S:1:pos:R:3:forces:R:3 structure_index=13 total_energy=-28.295127868652344 stress="0.011186456307768822 -0.0005564524326473475 -0.0016801219899207354 -0.0005564556340686977 0.01654714159667492 0.0006663803360424936 -0.0016801712336018682 0.0006663103704340756 0.015266507863998413" pbc="T T T"
Li       5.06084949       5.21606542       1.55642659       0.00006282      -0.01117229      -0.00402508
Li       1.53784162       3.08390294       5.26442266      -0.00432100      -0.02091172       0.01768063
Li       2.27434163       5.23540107       3.00449381       0.00612338       0.01766467      -0.01565344
Li       4.33112244       2.97543102       3.79763650      -0.01070196       0.03716302       0.03041672
Li       3.57183558       0.84653131       6.13013046       0.00200768      -0.00606774      -0.00971255
Sn       2.90309920       3.09738474       1.07124119      -0.00105352      -0.04669975       0.00269306
Sn       0.75136150       0.81513380       0.57212334      -0.00050252       0.01104612       0.00175257
Sn       3.72237757       5.14663906       5.66497246      -0.00617740       0.02045134       0.02471536
Sn       2.13671996       0.85116808       3.42796373       0.01456252      -0.00147365      -0.04786727
4
Lattice="3.299608486402559 0.0038879690954380466 -0.9065824323151406 -0.669175740411422 5.049304287154168 -2.409687206954448 -0.07060284673883205 -0.19168171621937133 6.200197353287271" Properties=species:S:1:pos:R:3:forces:R:3 structure_index=14 total_energy=-14.372011184692383 stress="0.011255924589931965 -0.011228728108108044 -0.019019324332475662 -0.01122871320694685 0.013712776824831963 -0.04322720319032669 -0.019019396975636482 -0.04322719946503639 -0.051628731191158295" pbc="T T T"
Li      -0.12443132       2.88879734       2.65107056       0.00034720       0.01235650      -0.00080379
Sn       1.87418340       0.30137804       3.43806082       0.00110999      -0.02073779       0.00998682
Sn       2.31513781       3.34245837      -1.38024100      -0.00402017      -0.00070765      -0.01962204
Sn       1.04010758       0.89053546       0.41752302       0.00256298       0.00908894       0.01043901
16
Lattice="5.3648038504219215 0.0038294288969713233 -0.6260021467948038 -0.004077656823328771 6.589314573668605 0.0016567228410713103 0.10925831985781004 -0.0018783139174207782 9.926329862782898" Properties=species:S:1:pos:R:3:forces:R:3 structure_index=15 total_energy=-51.52383804321289 stress="-0.010031514801084995 -8.012251782929525e-05 -0.016237398609519005 -8.010955934878439e-05 0.0034155468456447124 6.998733442742378e-05 -0.016237394884228706 6.994019349804148e-05 0.007367441430687904" pbc="T T T"
Li       3.57712602       1.80773115       1.97543438      -0.00128340       0.00005035      -0.00076620
Li       2.31866809       3.45715633       9.57965122      -0.00087388      -0.00262916      -0.00357089
Li       0.94702996       1.80451176       7.25044046       0.00045886       0.00026971       0.00016248
Li       4.94353319       0.15266148       4.29708825      -0.00123111       0.00436607       0.00287605
Li       2.32062751       0.15458399       9.57579224      -0.00230490       0.00268154       0.00101359
Li       4.94131514       3.46304374       4.30078260       0.00036304      -0.00448630      -0.00146893
Li       4.99897985       5.09852506       9.26016793       0.00061286       0.00169264       0.00186052
Li       2.25633448       5.10333329       4.61603159       0.00260912      -0.00023499      -0.00291643
Sn       0.89395563       3.45817286       2.29605043      -0.00165955      -0.00729796      -0.00835694
Sn       3.62675173       3.45568611       6.93368024       0.00144760      -0.00131940       0.00621546
Sn       0.94510029       5.09908053       7.24838295      -0.00146257       0.00133558       0.00543396
Sn       3.63028005       0.15936126       6.94100909       0.00350843       0.00071792      -0.00375657
Sn       3.57036368       5.10177688       1.97066423       0.00138060       0.00171191       0.00562408
Sn       5.00198844       1.81173471       9.26254134      -0.00048117      -0.00362335       0.00236424
Sn       2.26230643       1.80437408       4.61286475      -0.00077895       0.00022022       0.00154673
Sn       0.89384855       0.15523977       2.28924502      -0.00030497       0.00654521      -0.00626117
3
Lattice="3.9772097457186653 1.5212882535984413e-06 2.2940280124978756 1.3262983941062374 3.750463121596745 2.289896781840481 -0.00022452689085672407 -0.00028986850059034666 4.590435713300604" Properties=species:S:1:pos:R:3:forces:R:3 structure_index=16 total_energy=-8.086503982543945 stress="0.069752037525177 -0.0008248758967965841 0.0005107193719595671 -0.0008249481907114387 0.06760995835065842 0.0010597177315503359 0.0005106853204779327 0.0010596959618851542 0.06837370991706848" pbc="T T T"
Li       4.57602703       2.18582122       6.75532582      -0.00029764      -0.00064134      -0.00312408
Li       1.92484110       0.31194071       2.17067326       0.00030192      -0.00047109      -0.00247615
Sn       1.92487901       3.12367397       6.75466352      -0.00000427       0.00111244       0.00560023
5
Lattice="4.206888880378316 0.00040017405940301587 2.0370556425958273 1.610460012785331 3.887716399376078 2.0362156517227294 -0.018999880553030122 -0.013216545526552879 5.402018602515244" Properties=species:S:1:pos:R:3:forces:R:3 structure_index=17 total_energy=-13.386165618896484 stress="-0.041298482567071915 -0.008810672909021378 0.023509686812758446 -0.008810851722955704 -0.024589264765381813 0.015139655210077763 0.023509424179792404 0.015139824710786343 -0.08577346801757812" pbc="T T T"
Li       4.22030641       3.32789813       7.91552781       0.00281698       0.00263586      -0.01473299
Li       1.83294800       1.73010594       2.11266734      -0.00652206       0.00030096       0.01789736
Li       0.74117223       1.00485066       4.37090752      -0.00956518      -0.00579307       0.01712870
Li       3.69944694       0.16826012       3.62227935       0.00727857       0.00923845      -0.01790151
Sn       3.02380962       2.53229395       5.01530280       0.00599168      -0.00638220      -0.00239154
12
Lattice="5.032562808410562 -0.000981098784798285 0.0004591796286886486 0.0012143798955266175 5.345448780927481 0.013751907087559903 -0.0008365031014536858 -0.01726053215663384 8.594294334490437" Properties=species:S:1:pos:R:3:forces:R:3 structure_index=18 total_energy=-35.67621994018555 stress="-0.01620314083993435 0.0007245165179483593 -2.1099529476487078e-05 0.0007245652377605438 0.016561325639486313 0.0004256276006344706 -2.111743924615439e-05 0.0004256194515619427 0.028633365407586098" pbc="T T T"
Li       0.15175248       4.76720093       6.01314732      -0.00002642      -0.00323265      -0.01048681
Li       2.66721365       3.09349068       3.17713160       0.00008354       0.00332850       0.01015336
Li       0.15143973       4.77263088       3.18300694       0.00012522      -0.00308087       0.00968113
Li       2.66657953       0.42387317       1.70306961      -0.00000572       0.00327899      -0.00978536
Li       0.15064911       2.09145177       7.47335587       0.00004399      -0.00341301       0.00961188
Li       2.66769853       3.08783046       6.00738525      -0.00026532       0.00328775      -0.01023119
Li       0.15056522       2.10332466       1.70922597       0.00027238      -0.00352429      -0.01056709
Li       2.66662756       0.41195692       7.46713743      -0.00021932       0.00343660       0.01048285
Sn       0.15131235       4.78772162       0.30088620       0.00088976      -0.02241756       0.00003004
Sn       0.15083634       2.10636441       4.59110282       0.00063162      -0.02266434       0.00036223
Sn       2.66722670       0.40886200       4.58505065      -0.00076357       0.02252965       0.00036000
Sn       2.66773516       3.09025029       0.29486756      -0.00076616       0.02247122       0.00038896
5
Lattice="4.217624111874404 0.00018343340077219935 1.6565978866046813 2.120926914545073 4.45434802953182 0.7969461901789924 0.46700374019995156 -0.014388056180903615 5.008710144056338" Properties=species:S:1:pos:R:3:forces:R:3 structure_index=19 total_energy=-13.315362930297852 stress="0.04147741198539734 -0.01591736450791359 0.03652495518326759 -0.015917377546429634 -0.0005602261517196894 0.040317874401807785 0.036524854600429535 0.04031798988580704 -0.03575596958398819" pbc="T T T"
Li       4.15174505       3.64514411       5.65226700      -0.01899764      -0.00501077       0.04865521
Li       2.39114842       2.06769319       3.93785832       0.01903149       0.00404743      -0.04869038
Li       0.63056108       0.15832529       2.22302223       0.00388356      -0.05107670      -0.01001479
Li       3.32451963       1.11351207       1.56124548      -0.00400968       0.05161066       0.01021478
Sn       5.14673779       2.86307995       3.11905178       0.00009225       0.00042938      -0.00016483
6
Lattice="4.659444286133903 -0.08038611456047282 2.2578961576760714 1.7205341623337425 4.185695986211646 2.1938163352134428 0.09869919946736887 -0.09590737974386723 5.8881757381287105" Properties=species:S:1:pos:R:3:forces:R:3 structure_index=20 total_energy=-17.812667846679688 stress="0.00567028671503067 0.0037631529849022627 0.0033996424172073603 0.0037631478626281023 0.010430518537759781 0.011662483215332031 0.0033995569683611393 0.011662358418107033 -0.003886542282998562" pbc="T T T"
Li       4.45177445       2.17041104       3.11845564       0.00677042       0.03616128       0.00197571
Li       2.46057740       2.85127921       5.29461482      -0.01454975      -0.01413492      -0.02236614
Li       5.02157083       1.38688502       6.08978978      -0.00756776      -0.03524303      -0.00151834
Li       2.35145045       0.78688510       1.65651935       0.01614501       0.01408883       0.02217273
Sn       2.88412059       0.03276297       4.60358510      -0.01862329      -0.03746447      -0.02705373
Sn       1.92960273       3.60577967       2.34714135       0.01782535       0.03659231       0.02678977
15
Lattice="4.643341627237556 -0.24196238307502216 -0.7634225143155592 -0.614662296859689 6.1438156981022125 -5.175432829847124 -0.6050239260130833 0.03336897274498366 10.219214792556276" Properties=species:S:1:pos:R:3:forces:R:3 structure_index=21 total_energy=-39.977874755859375 stress="0.0035995955113321543 -0.00032366078812628984 0.000720116076990962 -0.0003236721968278289 0.0021270664874464273 0.0001445065572625026 0.0007200309191830456 0.00014445875422097743 0.0009173006401397288" pbc="T T T"
Li       1.81511491       4.42607047       3.96148175       0.02920594       0.00140601       0.00030074
Li       0.88039049       6.06647145      -2.30096842       0.00697570      -0.00473406       0.00336562
Li       1.03647363       0.64838162      -0.17856660      -0.00696768       0.00473625      -0.00336574
Li       1.39480457       5.15942289       0.75210152      -0.00275781      -0.00780086      -0.00271312
Li      -0.50324747       2.32215472       3.77818914      -0.02921338      -0.00140551      -0.00029515
Li       2.45199002       0.67420861       7.97205782      -0.00727929      -0.00434651      -0.00513738
Li      -0.08295678       1.58880451       6.98757868       0.00276180       0.00779931       0.00271165
Li       2.87952983       3.69256904      -3.18769083       0.04470984       0.00345307       0.00336497
Li       1.68761701       2.51901104       2.04862476      -0.05637563      -0.00971388      -0.00390091
Li       4.26760150       3.98724440       4.92762829       0.05636338       0.00971847       0.00389922
Li      -0.96263935       3.02228878       0.70815801      -0.04471575      -0.00345804      -0.00337107
Li       3.50319396       5.83205732      -0.99580085       0.00728439       0.00434744       0.00513817
Sn       3.95234111       4.73329748       1.93449398       0.00511080      -0.00077337       0.00021421
Sn       2.00285374       1.77296778       5.04176128      -0.00510904       0.00077196      -0.00021272
Sn       3.58743472       0.16453886       0.96623717       0.00000668      -0.00000027       0.00000150
5