phonopy:
  version: "2.37.1"
  frequency_unit_conversion_factor: 15.633302
  symmetry_tolerance: 1.00000e-05

space_group:
  type: "P1"
  number: 1
  Hall_symbol: "P 1"

primitive_matrix:
- [  0.000000000000000, -1.000000000000000, -1.000000000000000 ]
- [ -1.000000000000000, -1.000000000000000, -1.000000000000000 ]
- [  0.000000000000000,  0.000000000000000, -1.000000000000000 ]

supercell_matrix:
- [   2,   0,   0 ]
- [   0,   2,   0 ]
- [   0,   0,   2 ]

primitive_cell:
  lattice:
  - [     2.933275099783809,    -5.347196632242844,     0.000000000000000 ] # a
  - [    -3.575727406122802,    -5.347196632242844,     0.000000000000000 ] # b
  - [     0.707649037773148,    -2.988380733741488,    -8.094118374633537 ] # c
  points:
  - symbol: Sn # 1
    coordinates: [  0.475333482327471,  0.795468807409399,  0.187266976308891 ]
    mass: 118.710000
  - symbol: Sn # 2
    coordinates: [  0.586983583874602,  0.414740513164512,  0.878752340990680 ]
    mass: 118.710000
  - symbol: Sn # 3
    coordinates: [  0.817735294557151,  0.293819852104070,  0.487645091232789 ]
    mass: 118.710000
  - symbol: Sn # 4
    coordinates: [  0.046858828518162,  0.916039382295079,  0.987650336121553 ]
    mass: 118.710000
  - symbol: Sn # 5
    coordinates: [  0.926834667228055,  0.767719238844121,  0.391648788832675 ]
    mass: 118.710000
  - symbol: Sn # 6
    coordinates: [  0.466431041003019,  0.265094994141719,  0.282793960018477 ]
    mass: 118.710000
  - symbol: Sn # 7
    coordinates: [  0.318574081363848,  0.827475222507082,  0.589771758706919 ]
    mass: 118.710000
  - symbol: Sn # 8
    coordinates: [  0.194489585407503,  0.355623086475134,  0.680380532997983 ]
    mass: 118.710000
  - symbol: Sn # 9
    coordinates: [  0.039930179244900,  0.384531376874357,  0.082937634253402 ]
    mass: 118.710000
  - symbol: Sn # 10
    coordinates: [  0.695163888225473,  0.889255396187810,  0.782515628573249 ]
    mass: 118.710000
  reciprocal_lattice: # without 2pi
  - [     0.153633371487036,    -0.102736273734302,     0.051362432490425 ] # a*
  - [    -0.153633371487036,    -0.084277608263255,     0.017683837410342 ] # b*
  - [    -0.000000000000000,    -0.000000000000000,    -0.123546500522396 ] # c*

unit_cell:
  lattice:
  - [     6.509002505906613,     0.000000000000000,     0.000000000000000 ] # a
  - [    -2.933275099783809,     5.347196632242844,     0.000000000000000 ] # b
  - [    -4.283376443895951,    -2.358815898501355,     8.094118374633538 ] # c
  points:
  - symbol: Sn # 1
    coordinates: [  0.017264216281709,  0.541930733954239,  0.812733023691109 ]
    mass: 118.710000
    reduced_to: 1
  - symbol: Sn # 2
    coordinates: [  0.706507145844808,  0.119523561970206,  0.121247659009320 ]
    mass: 118.710000
    reduced_to: 2
  - symbol: Sn # 3
    coordinates: [  0.218535056663140,  0.400799762105989,  0.512354908767211 ]
    mass: 118.710000
    reduced_to: 3
  - symbol: Sn # 4
    coordinates: [  0.096310281583368,  0.049451453065206,  0.012349663878447 ]
    mass: 118.710000
    reduced_to: 4
  - symbol: Sn # 5
    coordinates: [  0.840631972323204,  0.913797305095149,  0.608351211167325 ]
    mass: 118.710000
    reduced_to: 5
  - symbol: Sn # 6
    coordinates: [  0.452111045839804,  0.985680004836785,  0.717206039981523 ]
    mass: 118.710000
    reduced_to: 6
  - symbol: Sn # 7
    coordinates: [  0.582753018785999,  0.264178937422151,  0.410228241293081 ]
    mass: 118.710000
    reduced_to: 7
  - symbol: Sn # 8
    coordinates: [  0.963996380526882,  0.769506795119379,  0.319619467002017 ]
    mass: 118.710000
    reduced_to: 8
  - symbol: Sn # 9
    coordinates: [  0.532530988872241,  0.492600809627341,  0.917062365746598 ]
    mass: 118.710000
    reduced_to: 9
  - symbol: Sn # 10
    coordinates: [  0.328228975238941,  0.633065087013468,  0.217484371426751 ]
    mass: 118.710000
    reduced_to: 10

supercell:
  lattice:
  - [    13.018005011813226,     0.000000000000000,     0.000000000000000 ] # a
  - [    -5.866550199567619,    10.694393264485688,     0.000000000000000 ] # b
  - [    -8.566752887791901,    -4.717631797002711,    16.188236749267077 ] # c
  points:
  - symbol: Sn # 1
    coordinates: [  0.008632108140855,  0.270965366977119,  0.406366511845554 ]
    mass: 118.710000
    reduced_to: 1
  - symbol: Sn # 2
    coordinates: [  0.508632108140855,  0.270965366977119,  0.406366511845554 ]
    mass: 118.710000
    reduced_to: 1
  - symbol: Sn # 3
    coordinates: [  0.008632108140855,  0.770965366977119,  0.406366511845554 ]
    mass: 118.710000
    reduced_to: 1
  - symbol: Sn # 4
    coordinates: [  0.508632108140855,  0.770965366977119,  0.406366511845554 ]
    mass: 118.710000
    reduced_to: 1
  - symbol: Sn # 5
    coordinates: [  0.008632108140855,  0.270965366977119,  0.906366511845554 ]
    mass: 118.710000
    reduced_to: 1
  - symbol: Sn # 6
    coordinates: [  0.508632108140855,  0.270965366977119,  0.906366511845554 ]
    mass: 118.710000
    reduced_to: 1
  - symbol: Sn # 7
    coordinates: [  0.008632108140855,  0.770965366977119,  0.906366511845554 ]
    mass: 118.710000
    reduced_to: 1
  - symbol: Sn # 8
    coordinates: [  0.508632108140855,  0.770965366977119,  0.906366511845554 ]
    mass: 118.710000
    reduced_to: 1
  - symbol: Sn # 9
    coordinates: [  0.353253572922404,  0.059761780985103,  0.060623829504660 ]
    mass: 118.710000
    reduced_to: 9
  - symbol: Sn # 10
    coordinates: [  0.853253572922404,  0.059761780985103,  0.060623829504660 ]
    mass: 118.710000
    reduced_to: 9
  - symbol: Sn # 11
    coordinates: [  0.353253572922404,  0.559761780985103,  0.060623829504660 ]
    mass: 118.710000
    reduced_to: 9
  - symbol: Sn # 12
    coordinates: [  0.853253572922404,  0.559761780985103,  0.060623829504660 ]
    mass: 118.710000
    reduced_to: 9
  - symbol: Sn # 13
    coordinates: [  0.353253572922404,  0.059761780985103,  0.560623829504660 ]
    mass: 118.710000
    reduced_to: 9
  - symbol: Sn # 14
    coordinates: [  0.853253572922404,  0.059761780985103,  0.560623829504660 ]
    mass: 118.710000
    reduced_to: 9
  - symbol: Sn # 15
    coordinates: [  0.353253572922404,  0.559761780985103,  0.560623829504660 ]
    mass: 118.710000
    reduced_to: 9
  - symbol: Sn # 16
    coordinates: [  0.853253572922404,  0.559761780985103,  0.560623829504660 ]
    mass: 118.710000
    reduced_to: 9
  - symbol: Sn # 17
    coordinates: [  0.109267528331570,  0.200399881052994,  0.256177454383605 ]
    mass: 118.710000
    reduced_to: 17
  - symbol: Sn # 18
    coordinates: [  0.609267528331570,  0.200399881052994,  0.256177454383605 ]
    mass: 118.710000
    reduced_to: 17
  - symbol: Sn # 19
    coordinates: [  0.109267528331570,  0.700399881052994,  0.256177454383605 ]
    mass: 118.710000
    reduced_to: 17
  - symbol: Sn # 20
    coordinates: [  0.609267528331570,  0.700399881052994,  0.256177454383605 ]
    mass: 118.710000
    reduced_to: 17
  - symbol: Sn # 21
    coordinates: [  0.109267528331570,  0.200399881052994,  0.756177454383605 ]
    mass: 118.710000
    reduced_to: 17
  - symbol: Sn # 22
    coordinates: [  0.609267528331570,  0.200399881052994,  0.756177454383605 ]
    mass: 118.710000
    reduced_to: 17
  - symbol: Sn # 23
    coordinates: [  0.109267528331570,  0.700399881052994,  0.756177454383605 ]
    mass: 118.710000
    reduced_to: 17
  - symbol: Sn # 24
    coordinates: [  0.609267528331570,  0.700399881052994,  0.756177454383605 ]
    mass: 118.710000
    reduced_to: 17
  - symbol: Sn # 25
    coordinates: [  0.048155140791684,  0.024725726532603,  0.006174831939223 ]
    mass: 118.710000
    reduced_to: 25
  - symbol: Sn # 26
    coordinates: [  0.548155140791684,  0.024725726532603,  0.006174831939223 ]
    mass: 118.710000
    reduced_to: 25
  - symbol: Sn # 27
    coordinates: [  0.048155140791684,  0.524725726532603,  0.006174831939223 ]
    mass: 118.710000
    reduced_to: 25
  - symbol: Sn # 28
    coordinates: [  0.548155140791684,  0.524725726532603,  0.006174831939223 ]
    mass: 118.710000
    reduced_to: 25
  - symbol: Sn # 29
    coordinates: [  0.048155140791684,  0.024725726532603,  0.506174831939223 ]
    mass: 118.710000
    reduced_to: 25
  - symbol: Sn # 30
    coordinates: [  0.548155140791684,  0.024725726532603,  0.506174831939223 ]
    mass: 118.710000
    reduced_to: 25
  - symbol: Sn # 31
    coordinates: [  0.048155140791684,  0.524725726532603,  0.506174831939223 ]
    mass: 118.710000
    reduced_to: 25
  - symbol: Sn # 32
    coordinates: [  0.548155140791684,  0.524725726532603,  0.506174831939223 ]
    mass: 118.710000
    reduced_to: 25
  - symbol: Sn # 33
    coordinates: [  0.420315986161602,  0.456898652547575,  0.304175605583662 ]
    mass: 118.710000
    reduced_to: 33
  - symbol: Sn # 34
    coordinates: [  0.920315986161602,  0.456898652547575,  0.304175605583662 ]
    mass: 118.710000
    reduced_to: 33
  - symbol: Sn # 35
    coordinates: [  0.420315986161602,  0.956898652547574,  0.304175605583662 ]
    mass: 118.710000
    reduced_to: 33
  - symbol: Sn # 36
    coordinates: [  0.920315986161602,  0.956898652547574,  0.304175605583662 ]
    mass: 118.710000
    reduced_to: 33
  - symbol: Sn # 37
    coordinates: [  0.420315986161602,  0.456898652547575,  0.804175605583662 ]
    mass: 118.710000
    reduced_to: 33
  - symbol: Sn # 38
    coordinates: [  0.920315986161602,  0.456898652547575,  0.804175605583662 ]
    mass: 118.710000
    reduced_to: 33
  - symbol: Sn # 39
    coordinates: [  0.420315986161602,  0.956898652547574,  0.804175605583662 ]
    mass: 118.710000
    reduced_to: 33
  - symbol: Sn # 40
    coordinates: [  0.920315986161602,  0.956898652547574,  0.804175605583662 ]
    mass: 118.710000
    reduced_to: 33
  - symbol: Sn # 41
    coordinates: [  0.226055522919902,  0.492840002418392,  0.358603019990762 ]
    mass: 118.710000
    reduced_to: 41
  - symbol: Sn # 42
    coordinates: [  0.726055522919902,  0.492840002418392,  0.358603019990762 ]
    mass: 118.710000
    reduced_to: 41
  - symbol: Sn # 43
    coordinates: [  0.226055522919902,  0.992840002418392,  0.358603019990762 ]
    mass: 118.710000
    reduced_to: 41
  - symbol: Sn # 44
    coordinates: [  0.726055522919902,  0.992840002418392,  0.358603019990762 ]
    mass: 118.710000
    reduced_to: 41
  - symbol: Sn # 45
    coordinates: [  0.226055522919902,  0.492840002418392,  0.858603019990761 ]
    mass: 118.710000
    reduced_to: 41
  - symbol: Sn # 46
    coordinates: [  0.726055522919902,  0.492840002418392,  0.858603019990761 ]
    mass: 118.710000
    reduced_to: 41
  - symbol: Sn # 47
    coordinates: [  0.226055522919902,  0.992840002418392,  0.858603019990761 ]
    mass: 118.710000
    reduced_to: 41
  - symbol: Sn # 48
    coordinates: [  0.726055522919902,  0.992840002418392,  0.858603019990761 ]
    mass: 118.710000
    reduced_to: 41
  - symbol: Sn # 49
    coordinates: [  0.291376509393000,  0.132089468711075,  0.205114120646541 ]
    mass: 118.710000
    reduced_to: 49
  - symbol: Sn # 50
    coordinates: [  0.791376509393000,  0.132089468711075,  0.205114120646541 ]
    mass: 118.710000
    reduced_to: 49
  - symbol: Sn # 51
    coordinates: [  0.291376509393000,  0.632089468711075,  0.205114120646541 ]
    mass: 118.710000
    reduced_to: 49
  - symbol: Sn # 52
    coordinates: [  0.791376509393000,  0.632089468711075,  0.205114120646541 ]
    mass: 118.710000
    reduced_to: 49
  - symbol: Sn # 53
    coordinates: [  0.291376509393000,  0.132089468711075,  0.705114120646541 ]
    mass: 118.710000
    reduced_to: 49
  - symbol: Sn # 54
    coordinates: [  0.791376509393000,  0.132089468711075,  0.705114120646541 ]
    mass: 118.710000
    reduced_to: 49
  - symbol: Sn # 55
    coordinates: [  0.291376509393000,  0.632089468711075,  0.705114120646541 ]
    mass: 118.710000
    reduced_to: 49
  - symbol: Sn # 56
    coordinates: [  0.791376509393000,  0.632089468711075,  0.705114120646541 ]
    mass: 118.710000
    reduced_to: 49
  - symbol: Sn # 57
    coordinates: [  0.481998190263441,  0.384753397559690,  0.159809733501008 ]
    mass: 118.710000
    reduced_to: 57
  - symbol: Sn # 58
    coordinates: [  0.981998190263441,  0.384753397559690,  0.159809733501008 ]
    mass: 118.710000
    reduced_to: 57
  - symbol: Sn # 59
    coordinates: [  0.481998190263441,  0.884753397559690,  0.159809733501008 ]
    mass: 118.710000
    reduced_to: 57
  - symbol: Sn # 60
    coordinates: [  0.981998190263441,  0.884753397559690,  0.159809733501008 ]
    mass: 118.710000
    reduced_to: 57
  - symbol: Sn # 61
    coordinates: [  0.481998190263441,  0.384753397559690,  0.659809733501008 ]
    mass: 118.710000
    reduced_to: 57
  - symbol: Sn # 62
    coordinates: [  0.981998190263441,  0.384753397559690,  0.659809733501008 ]
    mass: 118.710000
    reduced_to: 57
  - symbol: Sn # 63
    coordinates: [  0.481998190263441,  0.884753397559690,  0.659809733501008 ]
    mass: 118.710000
    reduced_to: 57
  - symbol: Sn # 64
    coordinates: [  0.981998190263441,  0.884753397559690,  0.659809733501008 ]
    mass: 118.710000
    reduced_to: 57
  - symbol: Sn # 65
    coordinates: [  0.266265494436120,  0.246300404813670,  0.458531182873299 ]
    mass: 118.710000
    reduced_to: 65
  - symbol: Sn # 66
    coordinates: [  0.766265494436120,  0.246300404813670,  0.458531182873299 ]
    mass: 118.710000
    reduced_to: 65
  - symbol: Sn # 67
    coordinates: [  0.266265494436120,  0.746300404813670,  0.458531182873299 ]
    mass: 118.710000
    reduced_to: 65
  - symbol: Sn # 68
    coordinates: [  0.766265494436120,  0.746300404813670,  0.458531182873299 ]
    mass: 118.710000
    reduced_to: 65
  - symbol: Sn # 69
    coordinates: [  0.266265494436120,  0.246300404813670,  0.958531182873299 ]
    mass: 118.710000
    reduced_to: 65
  - symbol: Sn # 70
    coordinates: [  0.766265494436120,  0.246300404813670,  0.958531182873299 ]
    mass: 118.710000
    reduced_to: 65
  - symbol: Sn # 71
    coordinates: [  0.266265494436120,  0.746300404813670,  0.958531182873299 ]
    mass: 118.710000
    reduced_to: 65
  - symbol: Sn # 72
    coordinates: [  0.766265494436120,  0.746300404813670,  0.958531182873299 ]
    mass: 118.710000
    reduced_to: 65
  - symbol: Sn # 73
    coordinates: [  0.164114487619471,  0.316532543506734,  0.108742185713376 ]
    mass: 118.710000
    reduced_to: 73
  - symbol: Sn # 74
    coordinates: [  0.664114487619471,  0.316532543506734,  0.108742185713376 ]
    mass: 118.710000
    reduced_to: 73
  - symbol: Sn # 75
    coordinates: [  0.164114487619471,  0.816532543506734,  0.108742185713376 ]
    mass: 118.710000
    reduced_to: 73
  - symbol: Sn # 76
    coordinates: [  0.664114487619471,  0.816532543506734,  0.108742185713376 ]
    mass: 118.710000
    reduced_to: 73
  - symbol: Sn # 77
    coordinates: [  0.164114487619471,  0.316532543506734,  0.608742185713375 ]
    mass: 118.710000
    reduced_to: 73
  - symbol: Sn # 78
    coordinates: [  0.664114487619471,  0.316532543506734,  0.608742185713375 ]
    mass: 118.710000
    reduced_to: 73
  - symbol: Sn # 79
    coordinates: [  0.164114487619471,  0.816532543506734,  0.608742185713375 ]
    mass: 118.710000
    reduced_to: 73
  - symbol: Sn # 80
    coordinates: [  0.664114487619471,  0.816532543506734,  0.608742185713375 ]
    mass: 118.710000
    reduced_to: 73

displacements:
- atom:    1
  displacement:
    [   0.0100000000000000,  0.0000000000000000,  0.0000000000000000 ]
  forces:
  - [  -0.0266656279563904, -0.0180192552506924,  0.0057364534586668 ]
  - [  -0.0152141069993377, -0.0182611737400293,  0.0074294051155448 ]
  - [  -0.0154971275478601, -0.0185982026159763,  0.0074754902161658 ]
  - [  -0.0155039671808481, -0.0179622750729322,  0.0074151223525405 ]
  - [  -0.0157813839614391, -0.0182432923465967,  0.0074415882118046 ]
  - [  -0.0157933644950390, -0.0182466730475426,  0.0074059069156647 ]
  - [  -0.0157843213528395, -0.0182536523789167,  0.0074177281931043 ]
  - [  -0.0157868973910809, -0.0182435344904661,  0.0074347686022520 ]
  - [   0.0224257074296474, -0.0088478848338127, -0.0038128057494760 ]
  - [   0.0223548114299774, -0.0088778194040060, -0.0040281452238560 ]
  - [   0.0224170573055744, -0.0088641541078687, -0.0038402425125241 ]
  - [   0.0224362686276436, -0.0088229533284903, -0.0038143536075950 ]
  - [   0.0225748233497143, -0.0089626340195537, -0.0037668636068702 ]
  - [   0.0224633067846298, -0.0083522833883762, -0.0043654059991241 ]
  - [   0.0222678780555725, -0.0084533384069800, -0.0035486752167344 ]
  - [   0.0227868370711803, -0.0090433117002249, -0.0040101166814566 ]
  - [   0.0039675198495388, -0.0070305485278368, -0.0046629076823592 ]
  - [   0.0041019394993782, -0.0073448931798339, -0.0041175754740834 ]
  - [   0.0037437565624714, -0.0071478309109807, -0.0046432991512120 ]
  - [   0.0037064610514790, -0.0070529161021113, -0.0044742636382580 ]
  - [   0.0039388616569340, -0.0071940748021007, -0.0045509929768741 ]
  - [   0.0039067515172064, -0.0071607213467360, -0.0045401607640088 ]
  - [   0.0039025342557579, -0.0071367085911334, -0.0044982545077801 ]
  - [   0.0039431606419384, -0.0071380729787052, -0.0044507049024105 ]
  - [   0.0206700284034014,  0.0205953903496265,  0.0026249126531184 ]
  - [   0.0207263138145208,  0.0205981656908989,  0.0026377164758742 ]
  - [   0.0206999555230141,  0.0205827783793211,  0.0026238155551255 ]
  - [   0.0206854641437531,  0.0206117518246174,  0.0025958959013224 ]
  - [   0.0204846635460854,  0.0201547108590603,  0.0028602792881429 ]
  - [   0.0209089964628220,  0.0209391508251429,  0.0024953205138445 ]
  - [   0.0213519930839539,  0.0188963711261749,  0.0016011651605368 ]
  - [   0.0209836363792419,  0.0205942392349243,  0.0026977672241628 ]
  - [  -0.0206270273774862,  0.0086786970496178,  0.0032382020726800 ]
  - [  -0.0203578881919384,  0.0070551279932261,  0.0042468383908272 ]
  - [  -0.0206203833222389,  0.0087393894791603,  0.0034823827445507 ]
  - [  -0.0211829096078873,  0.0080016413703561,  0.0029130205512047 ]
  - [  -0.0209299400448799,  0.0085286553949118,  0.0032654451206326 ]
  - [  -0.0209450852125883,  0.0085338717326522,  0.0033144187182188 ]
  - [  -0.0209303349256516,  0.0085320146754384,  0.0032657003030181 ]
  - [  -0.0209263879805803,  0.0085219703614712,  0.0032722838222980 ]
  - [  -0.0192913636565208, -0.0184951238334179, -0.0033249547705054 ]
  - [  -0.0199391841888428, -0.0212004780769348, -0.0023435531184077 ]
  - [  -0.0199931524693966, -0.0210991576313972, -0.0025514890439808 ]
  - [  -0.0196646712720394, -0.0187430381774902, -0.0018874867819250 ]
  - [  -0.0202612429857254, -0.0208741351962090, -0.0024700714275241 ]
  - [  -0.0202614106237888, -0.0208761878311634, -0.0025064945220947 ]
  - [  -0.0202618949115276, -0.0208760965615511, -0.0025200452655554 ]
  - [  -0.0202670767903328, -0.0208826139569283, -0.0025008246302605 ]
  - [   0.0087772272527218, -0.0115975271910429,  0.0032513979822397 ]
  - [   0.0081772133708000, -0.0114512592554092,  0.0034236037172377 ]
  - [   0.0087246447801590, -0.0115537140518427,  0.0031254654750228 ]
  - [   0.0088228583335876, -0.0117538925260305,  0.0032885805703700 ]
  - [   0.0086752828210592, -0.0115675730630755,  0.0033100736327469 ]
  - [   0.0086351400241256, -0.0116421263664961,  0.0032655093818903 ]
  - [   0.0085312034934759, -0.0115942489355803,  0.0030876435339451 ]
  - [   0.0086095901206136, -0.0115994894877076,  0.0032367634121329 ]
  - [  -0.0074563249945641,  0.0112488167360425, -0.0044675408862531 ]
  - [  -0.0075088562443852,  0.0114036779850721, -0.0047511528246105 ]
  - [  -0.0073182787746191,  0.0112969269976020, -0.0042817774228752 ]
  - [  -0.0072703356854618,  0.0110972505062819, -0.0045681288465858 ]
  - [  -0.0073243551887572,  0.0112229194492102, -0.0041860891506076 ]
  - [  -0.0073444880545139,  0.0113104507327080, -0.0048365914262831 ]
  - [  -0.0074155312031507,  0.0112751163542271, -0.0043692602775991 ]
  - [  -0.0074288104660809,  0.0112317958846688, -0.0043833153322339 ]
  - [   0.0194050446152687,  0.0169104970991611, -0.0030509000644088 ]
  - [   0.0127373263239861,  0.0182049591094255, -0.0050842291675508 ]
  - [   0.0127440989017487,  0.0181125216186047, -0.0051903752610087 ]
  - [   0.0128706004470587,  0.0183230340480804, -0.0052316915243864 ]
  - [   0.0130404401570559,  0.0182363912463188, -0.0051094652153552 ]
  - [   0.0130755137652159,  0.0182178597897291, -0.0051009007729590 ]
  - [   0.0130557129159570,  0.0182237345725298, -0.0051231058314443 ]
  - [   0.0130532654002309,  0.0182404369115829, -0.0050808959640563 ]
  - [  -0.0043028136715293,  0.0082550235092640,  0.0037898779846728 ]
  - [  -0.0042832004837692,  0.0081148426979780,  0.0041087120771408 ]
  - [  -0.0044023739174008,  0.0081113427877426,  0.0038786143995821 ]
  - [  -0.0043524606153369,  0.0081384312361479,  0.0037786131724715 ]
  - [  -0.0048335827887058,  0.0082784760743380,  0.0041379840113223 ]
  - [  -0.0042004561983049,  0.0081451423466206,  0.0037991199642420 ]
  - [  -0.0041808495298028,  0.0077150743454695,  0.0037340684793890 ]
  - [  -0.0042744074016809,  0.0081862080842257,  0.0039374604821205 ]
- atom:    1
  displacement:
    [  -0.0100000000000000,  0.0000000000000000,  0.0000000000000000 ]
  forces:
  - [  -0.0051947697065771, -0.0185213517397642,  0.0090113366022706 ]
  - [  -0.0163553804159164, -0.0182315893471241,  0.0074287541210651 ]
  - [  -0.0160753298550844, -0.0178977437317371,  0.0073827765882015 ]
  - [  -0.0160699523985386, -0.0185323134064674,  0.0074455062858760 ]
  - [  -0.0157923027873039, -0.0182491596788168,  0.0074139018543065 ]
  - [  -0.0157790016382933, -0.0182475820183754,  0.0074497358873487 ]
  - [  -0.0157908797264099, -0.0182410273700953,  0.0074378810822964 ]
  - [  -0.0157846137881279, -0.0182504486292601,  0.0074208211153746 ]
  - [   0.0224288292229176, -0.0088433139026165, -0.0038957484066486 ]
  - [   0.0224976036697626, -0.0088139548897743, -0.0036805821582675 ]
  - [   0.0224370621144772, -0.0088266981765628, -0.0038645621389151 ]
  - [   0.0224180426448584, -0.0088670151308179, -0.0038912314921618 ]
  - [   0.0222679637372494, -0.0087140155956149, -0.0039478521794081 ]
  - [   0.0223963577300310, -0.0093297082930803, -0.0033468212932348 ]
  - [   0.0225864779204130, -0.0092212632298470, -0.0041449489071965 ]
  - [   0.0220664255321026, -0.0086476635187864, -0.0036982754245400 ]
  - [   0.0038756765425205, -0.0073049133643508, -0.0044368240050972 ]
  - [   0.0037511254195124, -0.0069905640557408, -0.0049505266360939 ]
  - [   0.0040833042003214, -0.0071924938820302, -0.0044447216205299 ]
  - [   0.0041228285990655, -0.0072822896763682, -0.0046148207038641 ]
  - [   0.0038888033013791, -0.0071419635787606, -0.0045370217412710 ]
  - [   0.0039212619885802, -0.0071745384484529, -0.0045472276397049 ]
  - [   0.0039261225610971, -0.0071994275785983, -0.0045909862965345 ]
  - [   0.0038849695120007, -0.0071977949701250, -0.0046374546363950 ]
  - [   0.0207177065312862,  0.0206000022590160,  0.0025756279937923 ]
  - [   0.0206611789762974,  0.0205970816314220,  0.0025629228912294 ]
  - [   0.0206874608993530,  0.0206112470477819,  0.0025758156552911 ]
  - [   0.0207020100206137,  0.0205833110958338,  0.0026038382202387 ]
  - [   0.0209006667137146,  0.0210122205317020,  0.0023507159203291 ]
  - [   0.0204815492033958,  0.0202575083822012,  0.0027027470059693 ]
  - [   0.0200144611299038,  0.0223482456058264,  0.0036363950930536 ]
  - [   0.0203970968723297,  0.0205835308879614,  0.0024954769760370 ]
  - [  -0.0212259162217379,  0.0083809336647391,  0.0033311117440462 ]
  - [  -0.0214961469173431,  0.0100459083914757,  0.0022917399182916 ]
  - [  -0.0212325491011143,  0.0083155371248722,  0.0030854558572173 ]
  - [  -0.0206656269729137,  0.0090331416577101,  0.0036430470645428 ]
  - [  -0.0209229495376348,  0.0085282474756241,  0.0033040046691895 ]
  - [  -0.0209068246185780,  0.0085226520895958,  0.0032564988359809 ]
  - [  -0.0209229905158281,  0.0085252504795790,  0.0033042216673493 ]
  - [  -0.0209258720278740,  0.0085341120138764,  0.0032973363995552 ]
  - [  -0.0212121512740850, -0.0231862496584654, -0.0017066020518541 ]
  - [  -0.0205852892249823, -0.0205522701144218, -0.0026602260768414 ]
  - [  -0.0205442942678928, -0.0206493102014065, -0.0024480586871505 ]
  - [  -0.0208698771893978, -0.0230639129877090, -0.0031330930069089 ]
  - [  -0.0202676579356194, -0.0208813566714525, -0.0025358479470015 ]
  - [  -0.0202671047300100, -0.0208796262741089, -0.0024995952844620 ]
  - [  -0.0202658735215664, -0.0208786744624376, -0.0024863947182894 ]
  - [  -0.0202618092298508, -0.0208726376295090, -0.0025047222152352 ]
  - [   0.0085163572803140, -0.0116014136001468,  0.0032408460974693 ]
  - [   0.0091177895665169, -0.0117430016398430,  0.0030813287012279 ]
  - [   0.0085692685097456, -0.0116458050906658,  0.0033674659207463 ]
  - [   0.0084690395742655, -0.0114416107535362,  0.0032042609527707 ]
  - [   0.0086186118423939, -0.0116300992667675,  0.0031815792899579 ]
  - [   0.0086610624566674, -0.0115567427128553,  0.0032266527414322 ]
  - [   0.0087640574201941, -0.0116057330742478,  0.0034020375460386 ]
  - [   0.0086859660223126, -0.0115982498973608,  0.0032563502900302 ]
  - [  -0.0073530953377485,  0.0112512446939945, -0.0044173444621265 ]
  - [  -0.0073016174137592,  0.0111004114151001, -0.0041379225440323 ]
  - [  -0.0074889063835144,  0.0112006198614836, -0.0046009230427444 ]
  - [  -0.0075386087410152,  0.0114000411704183, -0.0043169353157282 ]
  - [  -0.0074865082278848,  0.0112732285633683, -0.0047094295732677 ]
  - [  -0.0074626300483942,  0.0111863724887371, -0.0040509747341275 ]
  - [  -0.0073926495388150,  0.0112220263108611, -0.0045130457729101 ]
  - [  -0.0073799625970423,  0.0112654529511929, -0.0044998065568507 ]
  - [   0.0070581091567874,  0.0194856785237789, -0.0070316856727004 ]
  - [   0.0132974088191986,  0.0182408243417740, -0.0051005510613322 ]
  - [   0.0133633846417069,  0.0183442309498787, -0.0050175082869828 ]
  - [   0.0132411941885948,  0.0181334652006626, -0.0049775307998061 ]
  - [   0.0130713973194361,  0.0182203203439713, -0.0050994493067265 ]
  - [   0.0130357351154089,  0.0182393081486225, -0.0051087029278278 ]
  - [   0.0130556523799896,  0.0182332582771778, -0.0050855693407357 ]
  - [   0.0130586978048086,  0.0182164367288351, -0.0051276190206409 ]
  - [  -0.0044099055230618,  0.0080143939703703,  0.0039824261330068 ]
  - [  -0.0044273161329329,  0.0081529673188925,  0.0036679999902844 ]
  - [  -0.0043098744936287,  0.0081565445289016,  0.0038974029012024 ]
  - [  -0.0043614776805043,  0.0081306612119079,  0.0039989836513996 ]
  - [  -0.0038836339954287,  0.0079907383769751,  0.0036274562589824 ]
  - [  -0.0045117260888219,  0.0081236092373729,  0.0039740358479321 ]
  - [  -0.0045381099916995,  0.0085629476234317,  0.0040465444326401 ]
  - [  -0.0044375541619956,  0.0080818478018045,  0.0038360846228898 ]
- atom:    1
  displacement:
    [  -0.0048095128332370,  0.0087674731996698,  0.0000000000000000 ]
  forces:
  - [  -0.0103743877261877, -0.0269839540123940,  0.0096860993653536 ]
  - [  -0.0160733535885811, -0.0181476082652807,  0.0074651855975389 ]
  - [  -0.0162323564291000, -0.0174320973455906,  0.0073914183303714 ]
  - [  -0.0156728439033031, -0.0179185029119253,  0.0074368636123836 ]
  - [  -0.0157866794615984, -0.0182449780404568,  0.0074234534986317 ]
  - [  -0.0157822705805302, -0.0182458683848381,  0.0074538923799992 ]
  - [  -0.0157945733517408, -0.0182365849614143,  0.0074321394786239 ]
  - [  -0.0157822929322720, -0.0182470008730888,  0.0073881549760699 ]
  - [   0.0224303640425205, -0.0088374651968479, -0.0038811545819044 ]
  - [   0.0224295649677515, -0.0087954159826040, -0.0037460271269083 ]
  - [   0.0224171597510576, -0.0088537251576781, -0.0038533601909876 ]
  - [   0.0224380083382130, -0.0088778696954250, -0.0038515971973538 ]
  - [   0.0221535116434097, -0.0088012544438243, -0.0039658024907112 ]
  - [   0.0228812992572784, -0.0086601758375764, -0.0041375085711479 ]
  - [   0.0226057209074497, -0.0090141892433167, -0.0039722006767988 ]
  - [   0.0219863858073950, -0.0088328067213297, -0.0037516225129366 ]
  - [   0.0037759479600936, -0.0074110925197601, -0.0044748843647540 ]
  - [   0.0038899253122509, -0.0073202298954129, -0.0046200286597013 ]
  - [   0.0039968714118004, -0.0068599609658122, -0.0046152975410223 ]
  - [   0.0040489058010280, -0.0068525336682796, -0.0043938392773271 ]
  - [   0.0038978895172477, -0.0071205003187060, -0.0045738881453872 ]
  - [   0.0039216387085617, -0.0071711260825396, -0.0045427870936692 ]
  - [   0.0039561139419675, -0.0072093652561307, -0.0045762667432427 ]
  - [   0.0039279381744564, -0.0071464818902314, -0.0044295163825154 ]
  - [   0.0207101143896580,  0.0206067711114883,  0.0025836457498372 ]
  - [   0.0206838101148605,  0.0206117983907461,  0.0026133777573705 ]
  - [   0.0206880047917366,  0.0205941330641508,  0.0026203282177448 ]
  - [   0.0207049325108528,  0.0205750428140163,  0.0025921263732016 ]
  - [   0.0206384640187025,  0.0208234973251820,  0.0020690062083304 ]
  - [   0.0206353273242712,  0.0203934926539660,  0.0026453281752765 ]
  - [   0.0189101062715054,  0.0228235609829426,  0.0042248400859535 ]
  - [   0.0209232624620199,  0.0205475315451622,  0.0026851678267121 ]
  - [  -0.0208133384585381,  0.0084032118320465,  0.0032377662137151 ]
  - [  -0.0228914245963097,  0.0116140032187104,  0.0009365072473884 ]
  - [  -0.0207640193402767,  0.0084080584347248,  0.0032646059989929 ]
  - [  -0.0209338292479515,  0.0088586453348398,  0.0037751039490104 ]
  - [  -0.0209347009658813,  0.0085497368127108,  0.0032385364174843 ]
  - [  -0.0209058318287134,  0.0085267089307308,  0.0032659489661455 ]
  - [  -0.0209053680300713,  0.0085028978064656,  0.0033046100288630 ]
  - [  -0.0209415704011917,  0.0085230506956577,  0.0032957931980491 ]
  - [  -0.0190929062664509, -0.0202145874500275, -0.0027542300522327 ]