phonopy:
  version: "2.37.1"
  frequency_unit_conversion_factor: 15.633302
  symmetry_tolerance: 1.00000e-05

space_group:
  type: "P1"
  number: 1
  Hall_symbol: "P 1"

primitive_matrix:
- [  1.000000000000000,  0.000000000000000, -0.000000000000000 ]
- [  0.000000000000000, -1.000000000000000,  0.000000000000000 ]
- [  0.000000000000000,  0.000000000000000, -1.000000000000000 ]

supercell_matrix:
- [   3,   0,   0 ]
- [   0,   3,   0 ]
- [   0,   0,   1 ]

primitive_cell:
  lattice:
  - [     4.283571037785451,     0.000000000000000,     0.000000000000000 ] # a
  - [     0.000062482788913,    -4.341391459807930,     0.000000000000000 ] # b
  - [     0.001903245716620,    -2.104842207119521,   -11.505371234928802 ] # c
  points:
  - symbol: Li # 1
    coordinates: [  0.822735275234187,  0.926640768836765,  0.545862746034212 ]
    mass: 6.940000
  - symbol: Li # 2
    coordinates: [  0.322749194251548,  0.041490579109138,  0.345501024072807 ]
    mass: 6.940000
  - symbol: Li # 3
    coordinates: [  0.824026773127178,  0.157440025760358,  0.144638718698972 ]
    mass: 6.940000
  - symbol: Li # 4
    coordinates: [  0.823695319417030,  0.331305543518456,  0.752054689772249 ]
    mass: 6.940000
  - symbol: Li # 5
    coordinates: [  0.824441883255463,  0.754309502243447,  0.938272285389249 ]
    mass: 6.940000
  - symbol: Sn # 6
    coordinates: [  0.324321139592740,  0.250916361095517,  0.946871000327337 ]
    mass: 118.710000
  - symbol: Sn # 7
    coordinates: [  0.323689352865348,  0.654882119140671,  0.144720064657933 ]
    mass: 118.710000
  - symbol: Sn # 8
    coordinates: [  0.823026952446071,  0.541524335239966,  0.345273896641573 ]
    mass: 118.710000
  - symbol: Sn # 9
    coordinates: [  0.323596324166001,  0.834394483820934,  0.743523653720981 ]
    mass: 118.710000
  - symbol: Sn # 10
    coordinates: [  0.322756900857101,  0.429219825036544,  0.545606106555101 ]
    mass: 118.710000
  reciprocal_lattice: # without 2pi
  - [     0.233450079659934,     0.000003359893293,     0.000038003190859 ] # a*
  - [     0.000000000000000,    -0.230340896290481,     0.042139556441783 ] # b*
  - [     0.000000000000000,    -0.000000000000000,    -0.086915926446956 ] # c*

unit_cell:
  lattice:
  - [     4.283571037785451,     0.000000000000000,     0.000000000000000 ] # a
  - [    -0.000062482788912,     4.341391459807930,     0.000000000000000 ] # b
  - [    -0.001903245716620,     2.104842207119521,    11.505371234928802 ] # c
  points:
  - symbol: Li # 1
    coordinates: [  0.822735275234187,  0.073359231163235,  0.454137253965788 ]
    mass: 6.940000
    reduced_to: 1
  - symbol: Li # 2
    coordinates: [  0.322749194251548,  0.958509420890862,  0.654498975927193 ]
    mass: 6.940000
    reduced_to: 2
  - symbol: Li # 3
    coordinates: [  0.824026773127178,  0.842559974239642,  0.855361281301028 ]
    mass: 6.940000
    reduced_to: 3
  - symbol: Li # 4
    coordinates: [  0.823695319417030,  0.668694456481544,  0.247945310227751 ]
    mass: 6.940000
    reduced_to: 4
  - symbol: Li # 5
    coordinates: [  0.824441883255463,  0.245690497756553,  0.061727714610751 ]
    mass: 6.940000
    reduced_to: 5
  - symbol: Sn # 6
    coordinates: [  0.324321139592740,  0.749083638904483,  0.053128999672663 ]
    mass: 118.710000
    reduced_to: 6
  - symbol: Sn # 7
    coordinates: [  0.323689352865348,  0.345117880859329,  0.855279935342067 ]
    mass: 118.710000
    reduced_to: 7
  - symbol: Sn # 8
    coordinates: [  0.823026952446071,  0.458475664760034,  0.654726103358427 ]
    mass: 118.710000
    reduced_to: 8
  - symbol: Sn # 9
    coordinates: [  0.323596324166001,  0.165605516179066,  0.256476346279019 ]
    mass: 118.710000
    reduced_to: 9
  - symbol: Sn # 10
    coordinates: [  0.322756900857101,  0.570780174963456,  0.454393893444899 ]
    mass: 118.710000
    reduced_to: 10

supercell:
  lattice:
  - [    12.850713113356353,     0.000000000000000,     0.000000000000000 ] # a
  - [    -0.000187448366737,    13.024174379423791,     0.000000000000000 ] # b
  - [    -0.001903245716620,     2.104842207119521,    11.505371234928802 ] # c
  points:
  - symbol: Li # 1
    coordinates: [  0.274245091744729,  0.024453077054412,  0.454137253965788 ]
    mass: 6.940000
    reduced_to: 1
  - symbol: Li # 2
    coordinates: [  0.607578425078062,  0.024453077054412,  0.454137253965788 ]
    mass: 6.940000
    reduced_to: 1
  - symbol: Li # 3
    coordinates: [  0.940911758411396,  0.024453077054412,  0.454137253965788 ]
    mass: 6.940000
    reduced_to: 1
  - symbol: Li # 4
    coordinates: [  0.274245091744729,  0.357786410387745,  0.454137253965788 ]
    mass: 6.940000
    reduced_to: 1
  - symbol: Li # 5
    coordinates: [  0.607578425078062,  0.357786410387745,  0.454137253965788 ]
    mass: 6.940000
    reduced_to: 1
  - symbol: Li # 6
    coordinates: [  0.940911758411396,  0.357786410387745,  0.454137253965788 ]
    mass: 6.940000
    reduced_to: 1
  - symbol: Li # 7
    coordinates: [  0.274245091744729,  0.691119743721078,  0.454137253965788 ]
    mass: 6.940000
    reduced_to: 1
  - symbol: Li # 8
    coordinates: [  0.607578425078062,  0.691119743721078,  0.454137253965788 ]
    mass: 6.940000
    reduced_to: 1
  - symbol: Li # 9
    coordinates: [  0.940911758411396,  0.691119743721078,  0.454137253965788 ]
    mass: 6.940000
    reduced_to: 1
  - symbol: Li # 10
    coordinates: [  0.107583064750516,  0.319503140296954,  0.654498975927193 ]
    mass: 6.940000
    reduced_to: 10
  - symbol: Li # 11
    coordinates: [  0.440916398083849,  0.319503140296954,  0.654498975927193 ]
    mass: 6.940000
    reduced_to: 10
  - symbol: Li # 12
    coordinates: [  0.774249731417183,  0.319503140296954,  0.654498975927193 ]
    mass: 6.940000
    reduced_to: 10
  - symbol: Li # 13
    coordinates: [  0.107583064750516,  0.652836473630287,  0.654498975927193 ]
    mass: 6.940000
    reduced_to: 10
  - symbol: Li # 14
    coordinates: [  0.440916398083849,  0.652836473630287,  0.654498975927193 ]
    mass: 6.940000
    reduced_to: 10
  - symbol: Li # 15
    coordinates: [  0.774249731417183,  0.652836473630287,  0.654498975927193 ]
    mass: 6.940000
    reduced_to: 10
  - symbol: Li # 16
    coordinates: [  0.107583064750516,  0.986169806963621,  0.654498975927193 ]
    mass: 6.940000
    reduced_to: 10
  - symbol: Li # 17
    coordinates: [  0.440916398083849,  0.986169806963621,  0.654498975927193 ]
    mass: 6.940000
    reduced_to: 10
  - symbol: Li # 18
    coordinates: [  0.774249731417183,  0.986169806963621,  0.654498975927193 ]
    mass: 6.940000
    reduced_to: 10
  - symbol: Li # 19
    coordinates: [  0.274675591042393,  0.280853324746547,  0.855361281301028 ]
    mass: 6.940000
    reduced_to: 19
  - symbol: Li # 20
    coordinates: [  0.608008924375726,  0.280853324746547,  0.855361281301028 ]
    mass: 6.940000
    reduced_to: 19
  - symbol: Li # 21
    coordinates: [  0.941342257709059,  0.280853324746547,  0.855361281301028 ]
    mass: 6.940000
    reduced_to: 19
  - symbol: Li # 22
    coordinates: [  0.274675591042393,  0.614186658079881,  0.855361281301028 ]
    mass: 6.940000
    reduced_to: 19
  - symbol: Li # 23
    coordinates: [  0.608008924375726,  0.614186658079881,  0.855361281301028 ]
    mass: 6.940000
    reduced_to: 19
  - symbol: Li # 24
    coordinates: [  0.941342257709059,  0.614186658079881,  0.855361281301028 ]
    mass: 6.940000
    reduced_to: 19
  - symbol: Li # 25
    coordinates: [  0.274675591042393,  0.947519991413214,  0.855361281301028 ]
    mass: 6.940000
    reduced_to: 19
  - symbol: Li # 26
    coordinates: [  0.608008924375726,  0.947519991413214,  0.855361281301028 ]
    mass: 6.940000
    reduced_to: 19
  - symbol: Li # 27
    coordinates: [  0.941342257709059,  0.947519991413214,  0.855361281301028 ]
    mass: 6.940000
    reduced_to: 19
  - symbol: Li # 28
    coordinates: [  0.274565106472343,  0.222898152160515,  0.247945310227751 ]
    mass: 6.940000
    reduced_to: 28
  - symbol: Li # 29
    coordinates: [  0.607898439805677,  0.222898152160515,  0.247945310227751 ]
    mass: 6.940000
    reduced_to: 28
  - symbol: Li # 30
    coordinates: [  0.941231773139010,  0.222898152160515,  0.247945310227751 ]
    mass: 6.940000
    reduced_to: 28
  - symbol: Li # 31
    coordinates: [  0.274565106472343,  0.556231485493848,  0.247945310227751 ]
    mass: 6.940000
    reduced_to: 28
  - symbol: Li # 32
    coordinates: [  0.607898439805677,  0.556231485493848,  0.247945310227751 ]
    mass: 6.940000
    reduced_to: 28
  - symbol: Li # 33
    coordinates: [  0.941231773139010,  0.556231485493848,  0.247945310227751 ]
    mass: 6.940000
    reduced_to: 28
  - symbol: Li # 34
    coordinates: [  0.274565106472343,  0.889564818827181,  0.247945310227751 ]
    mass: 6.940000
    reduced_to: 28
  - symbol: Li # 35
    coordinates: [  0.607898439805677,  0.889564818827181,  0.247945310227751 ]
    mass: 6.940000
    reduced_to: 28
  - symbol: Li # 36
    coordinates: [  0.941231773139010,  0.889564818827181,  0.247945310227751 ]
    mass: 6.940000
    reduced_to: 28
  - symbol: Li # 37
    coordinates: [  0.274813961085154,  0.081896832585518,  0.061727714610751 ]
    mass: 6.940000
    reduced_to: 37
  - symbol: Li # 38
    coordinates: [  0.608147294418488,  0.081896832585518,  0.061727714610751 ]
    mass: 6.940000
    reduced_to: 37
  - symbol: Li # 39
    coordinates: [  0.941480627751821,  0.081896832585518,  0.061727714610751 ]
    mass: 6.940000
    reduced_to: 37
  - symbol: Li # 40
    coordinates: [  0.274813961085154,  0.415230165918851,  0.061727714610751 ]
    mass: 6.940000
    reduced_to: 37
  - symbol: Li # 41
    coordinates: [  0.608147294418488,  0.415230165918851,  0.061727714610751 ]
    mass: 6.940000
    reduced_to: 37
  - symbol: Li # 42
    coordinates: [  0.941480627751821,  0.415230165918851,  0.061727714610751 ]
    mass: 6.940000
    reduced_to: 37
  - symbol: Li # 43
    coordinates: [  0.274813961085154,  0.748563499252184,  0.061727714610751 ]
    mass: 6.940000
    reduced_to: 37
  - symbol: Li # 44
    coordinates: [  0.608147294418488,  0.748563499252184,  0.061727714610751 ]
    mass: 6.940000
    reduced_to: 37
  - symbol: Li # 45
    coordinates: [  0.941480627751821,  0.748563499252184,  0.061727714610751 ]
    mass: 6.940000
    reduced_to: 37
  - symbol: Sn # 46
    coordinates: [  0.108107046530913,  0.249694546301494,  0.053128999672663 ]
    mass: 118.710000
    reduced_to: 46
  - symbol: Sn # 47
    coordinates: [  0.441440379864247,  0.249694546301494,  0.053128999672663 ]
    mass: 118.710000
    reduced_to: 46
  - symbol: Sn # 48
    coordinates: [  0.774773713197580,  0.249694546301494,  0.053128999672663 ]
    mass: 118.710000
    reduced_to: 46
  - symbol: Sn # 49
    coordinates: [  0.108107046530913,  0.583027879634828,  0.053128999672663 ]
    mass: 118.710000
    reduced_to: 46
  - symbol: Sn # 50
    coordinates: [  0.441440379864247,  0.583027879634828,  0.053128999672663 ]
    mass: 118.710000
    reduced_to: 46
  - symbol: Sn # 51
    coordinates: [  0.774773713197580,  0.583027879634828,  0.053128999672663 ]
    mass: 118.710000
    reduced_to: 46
  - symbol: Sn # 52
    coordinates: [  0.108107046530913,  0.916361212968161,  0.053128999672663 ]
    mass: 118.710000
    reduced_to: 46
  - symbol: Sn # 53
    coordinates: [  0.441440379864247,  0.916361212968161,  0.053128999672663 ]
    mass: 118.710000
    reduced_to: 46
  - symbol: Sn # 54
    coordinates: [  0.774773713197580,  0.916361212968161,  0.053128999672663 ]
    mass: 118.710000
    reduced_to: 46
  - symbol: Sn # 55
    coordinates: [  0.107896450955116,  0.115039293619776,  0.855279935342067 ]
    mass: 118.710000
    reduced_to: 55
  - symbol: Sn # 56
    coordinates: [  0.441229784288449,  0.115039293619776,  0.855279935342067 ]
    mass: 118.710000
    reduced_to: 55
  - symbol: Sn # 57
    coordinates: [  0.774563117621782,  0.115039293619776,  0.855279935342067 ]
    mass: 118.710000
    reduced_to: 55
  - symbol: Sn # 58
    coordinates: [  0.107896450955116,  0.448372626953110,  0.855279935342067 ]
    mass: 118.710000
    reduced_to: 55
  - symbol: Sn # 59
    coordinates: [  0.441229784288449,  0.448372626953110,  0.855279935342067 ]
    mass: 118.710000
    reduced_to: 55
  - symbol: Sn # 60
    coordinates: [  0.774563117621782,  0.448372626953110,  0.855279935342067 ]
    mass: 118.710000
    reduced_to: 55
  - symbol: Sn # 61
    coordinates: [  0.107896450955116,  0.781705960286443,  0.855279935342067 ]
    mass: 118.710000
    reduced_to: 55
  - symbol: Sn # 62
    coordinates: [  0.441229784288449,  0.781705960286443,  0.855279935342067 ]
    mass: 118.710000
    reduced_to: 55
  - symbol: Sn # 63
    coordinates: [  0.774563117621782,  0.781705960286443,  0.855279935342067 ]
    mass: 118.710000
    reduced_to: 55
  - symbol: Sn # 64
    coordinates: [  0.274342317482024,  0.152825221586678,  0.654726103358427 ]
    mass: 118.710000
    reduced_to: 64
  - symbol: Sn # 65
    coordinates: [  0.607675650815357,  0.152825221586678,  0.654726103358427 ]
    mass: 118.710000
    reduced_to: 64
  - symbol: Sn # 66
    coordinates: [  0.941008984148690,  0.152825221586678,  0.654726103358427 ]
    mass: 118.710000
    reduced_to: 64
  - symbol: Sn # 67
    coordinates: [  0.274342317482024,  0.486158554920011,  0.654726103358427 ]
    mass: 118.710000
    reduced_to: 64
  - symbol: Sn # 68
    coordinates: [  0.607675650815357,  0.486158554920011,  0.654726103358427 ]
    mass: 118.710000
    reduced_to: 64
  - symbol: Sn # 69
    coordinates: [  0.941008984148690,  0.486158554920011,  0.654726103358427 ]
    mass: 118.710000
    reduced_to: 64
  - symbol: Sn # 70
    coordinates: [  0.274342317482024,  0.819491888253345,  0.654726103358427 ]
    mass: 118.710000
    reduced_to: 64
  - symbol: Sn # 71
    coordinates: [  0.607675650815357,  0.819491888253345,  0.654726103358427 ]
    mass: 118.710000
    reduced_to: 64
  - symbol: Sn # 72
    coordinates: [  0.941008984148690,  0.819491888253345,  0.654726103358427 ]
    mass: 118.710000
    reduced_to: 64
  - symbol: Sn # 73
    coordinates: [  0.107865441388667,  0.055201838726355,  0.256476346279019 ]
    mass: 118.710000
    reduced_to: 73
  - symbol: Sn # 74
    coordinates: [  0.441198774722000,  0.055201838726355,  0.256476346279019 ]
    mass: 118.710000
    reduced_to: 73
  - symbol: Sn # 75
    coordinates: [  0.774532108055334,  0.055201838726355,  0.256476346279019 ]
    mass: 118.710000
    reduced_to: 73
  - symbol: Sn # 76
    coordinates: [  0.107865441388667,  0.388535172059689,  0.256476346279019 ]
    mass: 118.710000
    reduced_to: 73
  - symbol: Sn # 77
    coordinates: [  0.441198774722000,  0.388535172059689,  0.256476346279019 ]
    mass: 118.710000
    reduced_to: 73
  - symbol: Sn # 78
    coordinates: [  0.774532108055334,  0.388535172059689,  0.256476346279019 ]
    mass: 118.710000
    reduced_to: 73
  - symbol: Sn # 79
    coordinates: [  0.107865441388667,  0.721868505393022,  0.256476346279019 ]
    mass: 118.710000
    reduced_to: 73
  - symbol: Sn # 80
    coordinates: [  0.441198774722000,  0.721868505393022,  0.256476346279019 ]
    mass: 118.710000
    reduced_to: 73
  - symbol: Sn # 81
    coordinates: [  0.774532108055334,  0.721868505393022,  0.256476346279019 ]
    mass: 118.710000
    reduced_to: 73
  - symbol: Sn # 82
    coordinates: [  0.107585633619034,  0.190260058321152,  0.454393893444899 ]
    mass: 118.710000
    reduced_to: 82
  - symbol: Sn # 83
    coordinates: [  0.440918966952367,  0.190260058321152,  0.454393893444899 ]
    mass: 118.710000
    reduced_to: 82
  - symbol: Sn # 84
    coordinates: [  0.774252300285700,  0.190260058321152,  0.454393893444899 ]
    mass: 118.710000
    reduced_to: 82
  - symbol: Sn # 85
    coordinates: [  0.107585633619034,  0.523593391654485,  0.454393893444899 ]
    mass: 118.710000
    reduced_to: 82
  - symbol: Sn # 86
    coordinates: [  0.440918966952367,  0.523593391654485,  0.454393893444899 ]
    mass: 118.710000
    reduced_to: 82
  - symbol: Sn # 87
    coordinates: [  0.774252300285700,  0.523593391654485,  0.454393893444899 ]
    mass: 118.710000
    reduced_to: 82
  - symbol: Sn # 88
    coordinates: [  0.107585633619034,  0.856926724987819,  0.454393893444899 ]
    mass: 118.710000
    reduced_to: 82
  - symbol: Sn # 89
    coordinates: [  0.440918966952367,  0.856926724987819,  0.454393893444899 ]
    mass: 118.710000
    reduced_to: 82
  - symbol: Sn # 90
    coordinates: [  0.774252300285700,  0.856926724987819,  0.454393893444899 ]
    mass: 118.710000
    reduced_to: 82

displacements:
- atom:    1
  displacement:
    [   0.0100000000000000,  0.0000000000000000,  0.0000000000000000 ]
  forces:
  - [  -0.0177984647452831, -0.0401382185518742, -0.0102625899016857 ]
  - [   0.0013383519835770, -0.0401168465614319, -0.0100675150752068 ]
  - [   0.0013500526547432, -0.0401453003287315, -0.0104617606848478 ]
  - [   0.0011101327836514, -0.0401310175657272, -0.0102642914280295 ]
  - [   0.0006752153858542, -0.0407383069396019, -0.0102502191439271 ]
  - [   0.0006780638359487, -0.0395272076129913, -0.0102798836305737 ]
  - [   0.0011105537414551, -0.0401305556297302, -0.0102640958502889 ]
  - [   0.0006745830178261, -0.0395190194249153, -0.0102693447843194 ]
  - [   0.0006787142483518, -0.0407406054437160, -0.0102611342445016 ]
  - [   0.0024399324320257,  0.0000871904194355,  0.0040315231308341 ]
  - [   0.0024404649157077,  0.0003145653754473,  0.0040862835012376 ]
  - [   0.0022694559302181,  0.0002021808177233,  0.0040607005357742 ]
  - [   0.0023700138553977,  0.0002736356109381,  0.0040268683806062 ]
  - [   0.0023710823152214,  0.0001344629563391,  0.0040915897116065 ]
  - [   0.0022800082806498,  0.0002027768641710,  0.0040608625859022 ]
  - [   0.0033818676602095,  0.0001592673361301,  0.0030212420970201 ]
  - [   0.0034056468866765,  0.0002461154945195,  0.0051225107163191 ]
  - [   0.0023414834868163,  0.0002022869884968,  0.0040605440735817 ]
  - [  -0.0021069983486086,  0.0423707775771618,  0.0103088878095150 ]
  - [  -0.0021639782935381,  0.0423606932163239,  0.0103043392300606 ]
  - [  -0.0021641608327627,  0.0423806384205818,  0.0103116370737553 ]
  - [  -0.0021122209727764,  0.0423690751194954,  0.0103091122582555 ]
  - [  -0.0021656088065356,  0.0423730127513409,  0.0103066563606262 ]
  - [  -0.0021656290628016,  0.0423663482069969,  0.0103100482374430 ]
  - [  -0.0020548189058900,  0.0423707291483879,  0.0103068426251411 ]
  - [  -0.0024092148523778,  0.0423935241997242,  0.0100793074816465 ]
  - [  -0.0024094809778035,  0.0423473790287971,  0.0105396704748273 ]
  - [  -0.0005048252642155, -0.0062640369869769,  0.0028446055948734 ]
  - [  -0.0004772879183292, -0.0063834995962679,  0.0027030371129513 ]
  - [  -0.0004786470090039, -0.0061349747702479,  0.0029836967587471 ]
  - [  -0.0004463475197554, -0.0062584709376097,  0.0028436481952667 ]
  - [  -0.0004151044413447, -0.0062580956146121,  0.0028529837727547 ]
  - [  -0.0004162853583694, -0.0062599955126643,  0.0028339326381683 ]
  - [  -0.0005256384611130, -0.0062537034973502,  0.0028436779975891 ]
  - [  -0.0005106814205647, -0.0061368937604129,  0.0027535408735275 ]
  - [  -0.0005110385245644, -0.0063788630068302,  0.0029346868395805 ]
  - [  -0.0035049943253398,  0.0080016991123557, -0.0040992945432663 ]
  - [  -0.0036813514307141,  0.0080251060426235, -0.0035782121121883 ]
  - [  -0.0036835037171841,  0.0079773487523198, -0.0046275444328785 ]
  - [  -0.0032401513308287,  0.0080014895647764, -0.0041004642844200 ]
  - [  -0.0032232208177447,  0.0079989023506641, -0.0040927678346634 ]
  - [  -0.0032237730920315,  0.0080040050670505, -0.0041066333651543 ]
  - [  -0.0032437657937407,  0.0080013992264867, -0.0041001923382282 ]
  - [  -0.0032200496643782,  0.0080021396279335, -0.0040895491838455 ]
  - [  -0.0032190978527069,  0.0080008311197162, -0.0041094720363617 ]
  - [  -0.0009376179659739,  0.0372662730515003, -0.0152519568800926 ]
  - [  -0.0009380487608723,  0.0371004641056061, -0.0151729676872492 ]
  - [  -0.0008517715614289,  0.0371838770806789, -0.0152125228196383 ]
  - [  -0.0008648492512293,  0.0371791459619999, -0.0150318518280983 ]
  - [  -0.0008650780073367,  0.0371989384293556, -0.0154042262583971 ]
  - [  -0.0008690177346580,  0.0371892973780632, -0.0152166467159986 ]
  - [  -0.0009402940049767,  0.0371522381901741, -0.0151955671608448 ]
  - [  -0.0009397731628269,  0.0372176207602024, -0.0152321010828018 ]
  - [  -0.0008523493306711,  0.0371848009526730, -0.0152133479714394 ]
  - [   0.0007717465050519,  0.0088974330574274,  0.0177064631134272 ]
  - [   0.0007724627503194,  0.0089763421565294,  0.0174670331180096 ]
  - [   0.0010339771397412,  0.0089370459318161,  0.0175871327519417 ]
  - [   0.0008973815711215,  0.0088728815317154,  0.0176172740757465 ]
  - [   0.0008962176507339,  0.0090027423575521,  0.0175561867654324 ]
  - [   0.0008967673056759,  0.0089373802766204,  0.0175860505551100 ]
  - [   0.0007853459101170,  0.0090271327644587,  0.0176763664931059 ]
  - [   0.0007870526169427,  0.0088484194129705,  0.0174969062209129 ]
  - [   0.0010266755707562,  0.0089373243972659,  0.0175857935100794 ]
  - [  -0.0003830259665847, -0.0025219118688256,  0.0012861662544310 ]
  - [  -0.0006575472652912, -0.0025494815781713,  0.0012077582068741 ]
  - [  -0.0006595648010261, -0.0024713503662497,  0.0013846748042852 ]
  - [  -0.0004595750942826, -0.0025109101552516,  0.0012962629552931 ]
  - [  -0.0004898700863123, -0.0025062116328627,  0.0013229870237410 ]
  - [  -0.0004896956379525, -0.0025153136812150,  0.0012698187492788 ]
  - [  -0.0003992747515440, -0.0024999885354191,  0.0012896645348519 ]
  - [  -0.0006542792543769, -0.0024588508531451,  0.0011933471541852 ]
  - [  -0.0006569384131581, -0.0025605261325836,  0.0014024241827428 ]
  - [   0.0045238160528243, -0.0341340638697147,  0.0188279319554567 ]
  - [   0.0045393593609333, -0.0342888310551643,  0.0121945124119520 ]
  - [   0.0009722569957376, -0.0342117324471474,  0.0155287440866232 ]
  - [   0.0007789651863277, -0.0339929535984993,  0.0153124593198299 ]
  - [   0.0007780599989928, -0.0344321280717850,  0.0157471783459187 ]
  - [   0.0008808513521217, -0.0342121198773384,  0.0155290365219116 ]
  - [   0.0007869451073930, -0.0344819910824299,  0.0152848046272993 ]
  - [   0.0007846982916817, -0.0339577086269855,  0.0157883148640394 ]
  - [   0.0008674020646140, -0.0342201888561249,  0.0155357625335455 ]
  - [   0.0055863587185740, -0.0175913181155920, -0.0222956240177155 ]
  - [   0.0056674773804843, -0.0094585008919239, -0.0217823199927807 ]
  - [   0.0019709514454007, -0.0135841351002455, -0.0220463834702969 ]
  - [   0.0017931802431121, -0.0135754141956568, -0.0221024528145790 ]
  - [   0.0017929422901943, -0.0135935675352812, -0.0219874009490013 ]
  - [   0.0018697965424508, -0.0135848354548216, -0.0220464281737804 ]
  - [   0.0052735852077603, -0.0099283717572689, -0.0221141204237938 ]
  - [   0.0053484383970499, -0.0173403527587652, -0.0219727754592896 ]
  - [   0.0019865985959768, -0.0135785946622491, -0.0220498088747263 ]
- atom:    1
  displacement:
    [  -0.0100000000000000,  0.0000000000000000,  0.0000000000000000 ]
  forces:
  - [   0.0203680656850338, -0.0401342958211899, -0.0101301958784461 ]
  - [   0.0012159347534180, -0.0401448234915733, -0.0104598961770535 ]
  - [   0.0012277235509828, -0.0401171520352364, -0.0100657986477017 ]
  - [   0.0014562290161848, -0.0401333197951317, -0.0102666458114982 ]
  - [   0.0018885121680796, -0.0395262911915779, -0.0102805905044079 ]
  - [   0.0018911132356152, -0.0407399460673332, -0.0102505162358284 ]
  - [   0.0014567021280527, -0.0401285327970982, -0.0102665740996599 ]
  - [   0.0018876837566495, -0.0407412014901638, -0.0102616995573044 ]
  - [   0.0018923307070509, -0.0395167507231236, -0.0102699520066381 ]
  - [   0.0021320339292288,  0.0003157546743751,  0.0040875943377614 ]
  - [   0.0021333445329219,  0.0000879564322531,  0.0040328875184059 ]
  - [   0.0023032417520881,  0.0002018511295319,  0.0040612160228193 ]
  - [   0.0022003040648997,  0.0001329472288489,  0.0040932595729828 ]
  - [   0.0022018784657121,  0.0002719075419009,  0.0040277810767293 ]
  - [   0.0022926933597773,  0.0002027205191553,  0.0040612919256091 ]
  - [   0.0011695834109560,  0.0002464707940817,  0.0051213148981333 ]
  - [   0.0011866536224261,  0.0001588515006006,  0.0030194052960724 ]
  - [   0.0022310740314424,  0.0002023722045124,  0.0040613408200443 ]
  - [  -0.0022001087199897,  0.0423719808459282,  0.0103095220401883 ]
  - [  -0.0021428926847875,  0.0423815399408340,  0.0103112449869514 ]
  - [  -0.0021439171396196,  0.0423597320914268,  0.0103036146610975 ]
  - [  -0.0021953727118671,  0.0423680320382118,  0.0103098433464766 ]
  - [  -0.0021407073363662,  0.0423661358654499,  0.0103100538253784 ]
  - [  -0.0021408891770989,  0.0423735529184341,  0.0103067867457867 ]
  - [  -0.0022525649983436,  0.0423708036541939,  0.0103089790791273 ]
  - [  -0.0018987245857716,  0.0423478409647942,  0.0105364304035902 ]
  - [  -0.0018980046734214,  0.0423927903175354,  0.0100764725357294 ]
  - [  -0.0003467258065939, -0.0062609300948679,  0.0028524324297905 ]
  - [  -0.0003717532381415, -0.0061326315626502,  0.0029820576310158 ]
  - [  -0.0003775937075261, -0.0063817244954407,  0.0027002245187759 ]
  - [  -0.0004059402272105, -0.0062587638385594,  0.0028429962694645 ]
  - [  -0.0004358757287264, -0.0062606008723378,  0.0028335079550743 ]
  - [  -0.0004354370757937, -0.0062574315816164,  0.0028534159064293 ]
  - [  -0.0003262292593718, -0.0062579158693552,  0.0028506480157375 ]
  - [  -0.0003401152789593, -0.0063803330995142,  0.0029336959123611 ]
  - [  -0.0003452820819803, -0.0061388751491904,  0.0027507320046425 ]
  - [  -0.0029446091502905,  0.0080015417188406, -0.0040986314415932 ]
  - [  -0.0027757948264480,  0.0079780500382185, -0.0046137683093548 ]
  - [  -0.0027566254138947,  0.0080258324742317, -0.0035639367997646 ]
  - [  -0.0032093841582537,  0.0080032553523779, -0.0041003748774529 ]
  - [  -0.0032252501696348,  0.0080045275390148, -0.0041069127619267 ]
  - [  -0.0032255882397294,  0.0079983081668615, -0.0040925778448582 ]
  - [  -0.0032060351222754,  0.0079996380954981, -0.0041000694036484 ]
  - [  -0.0032295035198331,  0.0080000944435596, -0.0041101239621639 ]
  - [  -0.0032289884984493,  0.0080028073862195, -0.0040895380079746 ]
  - [  -0.0008021479006857,  0.0371007695794106, -0.0151740014553070 ]
  - [  -0.0008050787728280,  0.0372682549059391, -0.0152521524578333 ]
  - [  -0.0008886788273230,  0.0371849313378334, -0.0152127314358950 ]
  - [  -0.0008664694032632,  0.0371991097927094, -0.0154038034379482 ]
  - [  -0.0008674774435349,  0.0371797941625118, -0.0150309465825558 ]
  - [  -0.0008650242816657,  0.0371891520917416, -0.0152162611484528 ]
  - [  -0.0008007670985535,  0.0372170284390450, -0.0152328796684742 ]
  - [  -0.0008035949431360,  0.0371509641408920, -0.0151959732174873 ]
  - [  -0.0008881519897841,  0.0371842980384827, -0.0152134113013744 ]
  - [   0.0010220811236650,  0.0089774895459414,  0.0174654889851809 ]
  - [   0.0010210818145424,  0.0088971462100744,  0.0177052766084671 ]
  - [   0.0007628487073816,  0.0089370915666223,  0.0175851024687290 ]
  - [   0.0008971324423328,  0.0090042324736714,  0.0175559800118208 ]
  - [   0.0008964184089564,  0.0088724195957184,  0.0176151208579540 ]
  - [   0.0008971976349130,  0.0089372247457504,  0.0175864454358816 ]
  - [   0.0010066137183458,  0.0088483477011323,  0.0174954123795033 ]
  - [   0.0010073152370751,  0.0090265208855271,  0.0176752246916294 ]
  - [   0.0007678573601879,  0.0089374277740717,  0.0175839774310589 ]
  - [  -0.0005766348913312, -0.0025279400870204,  0.0012881588190794 ]
  - [  -0.0002998234704137, -0.0024737534113228,  0.0013862152118236 ]
  - [  -0.0003053343098145, -0.0025492552667856,  0.0012099107261747 ]
  - [  -0.0004995195195079, -0.0025108754634857,  0.0012966324575245 ]
  - [  -0.0004701465368271, -0.0025154915638268,  0.0012694331817329 ]
  - [  -0.0004697967960965, -0.0025060435291380,  0.0013238317333162 ]
  - [  -0.0005586054176092, -0.0024970825761557,  0.0012934964615852 ]
  - [  -0.0003031343221664, -0.0025585314724594,  0.0014039759989828 ]
  - [  -0.0003082787734456, -0.0024581910111010,  0.0011945215519518 ]
  - [  -0.0028577232733369, -0.0342921167612076,  0.0121226347982883 ]
  - [  -0.0027272093575448, -0.0341366939246655,  0.0187595523893833 ]
  - [   0.0007681875140406, -0.0342120304703712,  0.0155294984579086 ]
  - [   0.0009597364696674, -0.0344304516911507,  0.0157468616962433 ]
  - [   0.0009594970033504, -0.0339925996959209,  0.0153119880706072 ]
  - [   0.0008562724106014, -0.0342114903032780,  0.0155281033366919 ]
  - [   0.0009357967646793, -0.0339582785964012,  0.0157892256975174 ]
  - [   0.0009337498340756, -0.0344827175140381,  0.0152849648147821 ]
  - [   0.0008538253023289, -0.0342208705842495,  0.0155352335423231 ]
  - [  -0.0020316457375884, -0.0094552785158157, -0.0217873062938452 ]
  - [  -0.0019456321606413, -0.0175879038870335, -0.0223016627132893 ]
  - [   0.0016693240031600, -0.0135844033211470, -0.0220460556447506 ]
  - [   0.0018451354699209, -0.0135939121246338, -0.0219865385442972 ]
  - [   0.0018451246432960, -0.0135755501687527, -0.0221032723784447 ]
  - [   0.0017654530238360, -0.0135847395285964, -0.0220464300364256 ]
  - [  -0.0017031531315297, -0.0173425022512674, -0.0219799913465977 ]
  - [  -0.0016252007335424, -0.0099309850484133, -0.0221198741346598 ]
  - [   0.0016633430495858, -0.0135783115401864, -0.0220499224960804 ]
- atom:    1
  displacement:
    [  -0.0000001439234160,  0.0099999999989643,  0.0000000000000000 ]
  forces:
  - [   0.0012817094102502, -0.0583587400615215, -0.0112539855763316 ]
  - [   0.0012679127976298, -0.0403318181633949, -0.0102437231689692 ]
  - [   0.0012981869513169, -0.0403321124613285, -0.0102437911555171 ]