phonopy:
  version: "2.37.1"
  frequency_unit_conversion_factor: 15.633302
  symmetry_tolerance: 1.00000e-05

space_group:
  type: "P1"
  number: 1
  Hall_symbol: "P 1"

primitive_matrix:
- [ -0.000000000000000,  1.000000000000000, -0.000000000000000 ]
- [ -1.000000000000000,  0.000000000000000,  0.000000000000000 ]
- [  0.000000000000000,  0.000000000000000,  1.000000000000000 ]

supercell_matrix:
- [   3,   0,   0 ]
- [   0,   3,   0 ]
- [   0,   0,   1 ]

primitive_cell:
  lattice:
  - [     0.000055339727064,    -3.506298777219943,     0.000000000000000 ] # a
  - [     3.506299434629343,     0.000000000000000,     0.000000000000000 ] # b
  - [     0.000250008774784,    -0.000057149481974,    19.728926796464258 ] # c
  points:
  - symbol: Li # 1
    coordinates: [  0.486635426426730,  0.478961844993516,  0.241031338859128 ]
    mass: 6.940000
  - symbol: Li # 2
    coordinates: [  0.986844631104017,  0.979246465734044,  0.656235706037257 ]
    mass: 6.940000
  - symbol: Li # 3
    coordinates: [  0.986544671957984,  0.978817576931401,  0.157355754452351 ]
    mass: 6.940000
  - symbol: Li # 4
    coordinates: [  0.986106775315054,  0.979489067042771,  0.996172971286138 ]
    mass: 6.940000
  - symbol: Li # 5
    coordinates: [  0.986701205498546,  0.979186986851647,  0.324644087224481 ]
    mass: 6.940000
  - symbol: Li # 6
    coordinates: [  0.986724986843446,  0.979143136162929,  0.486013460838052 ]
    mass: 6.940000
  - symbol: Li # 7
    coordinates: [  0.986605697291822,  0.979383137916443,  0.826548647641420 ]
    mass: 6.940000
  - symbol: Sn # 8
    coordinates: [  0.486249005816007,  0.479516176369333,  0.911840872485740 ]
    mass: 118.710000
  - symbol: Sn # 9
    coordinates: [  0.486710330472078,  0.479174453830270,  0.399673941519494 ]
    mass: 118.710000
  - symbol: Sn # 10
    coordinates: [  0.486403916143518,  0.479038065659556,  0.082428292456236 ]
    mass: 118.710000
  - symbol: Sn # 11
    coordinates: [  0.486821583616311,  0.479277968171637,  0.741396899981239 ]
    mass: 118.710000
  - symbol: Sn # 12
    coordinates: [  0.486765948814766,  0.479195465890290,  0.570649862745747 ]
    mass: 118.710000
  reciprocal_lattice: # without 2pi
  - [     0.000000000000000,    -0.285201023511429,    -0.000000826151920 ] # a*
  - [     0.285200970038006,     0.000004501311737,    -0.000003614108794 ] # b*
  - [     0.000000000000000,    -0.000000000000000,     0.050686994296072 ] # c*

unit_cell:
  lattice:
  - [     3.506299434629343,     0.000000000000000,     0.000000000000000 ] # a
  - [    -0.000055339727064,     3.506298777219943,     0.000000000000000 ] # b
  - [     0.000250008774784,    -0.000057149481974,    19.728926796464258 ] # c
  points:
  - symbol: Li # 1
    coordinates: [  0.478961844993516,  0.513364573573270,  0.241031338859128 ]
    mass: 6.940000
    reduced_to: 1
  - symbol: Li # 2
    coordinates: [  0.979246465734044,  0.013155368895983,  0.656235706037257 ]
    mass: 6.940000
    reduced_to: 2
  - symbol: Li # 3
    coordinates: [  0.978817576931401,  0.013455328042016,  0.157355754452351 ]
    mass: 6.940000
    reduced_to: 3
  - symbol: Li # 4
    coordinates: [  0.979489067042771,  0.013893224684946,  0.996172971286138 ]
    mass: 6.940000
    reduced_to: 4
  - symbol: Li # 5
    coordinates: [  0.979186986851647,  0.013298794501454,  0.324644087224481 ]
    mass: 6.940000
    reduced_to: 5
  - symbol: Li # 6
    coordinates: [  0.979143136162929,  0.013275013156554,  0.486013460838052 ]
    mass: 6.940000
    reduced_to: 6
  - symbol: Li # 7
    coordinates: [  0.979383137916443,  0.013394302708178,  0.826548647641420 ]
    mass: 6.940000
    reduced_to: 7
  - symbol: Sn # 8
    coordinates: [  0.479516176369333,  0.513750994183993,  0.911840872485740 ]
    mass: 118.710000
    reduced_to: 8
  - symbol: Sn # 9
    coordinates: [  0.479174453830270,  0.513289669527922,  0.399673941519494 ]
    mass: 118.710000
    reduced_to: 9
  - symbol: Sn # 10
    coordinates: [  0.479038065659556,  0.513596083856482,  0.082428292456236 ]
    mass: 118.710000
    reduced_to: 10
  - symbol: Sn # 11
    coordinates: [  0.479277968171637,  0.513178416383689,  0.741396899981239 ]
    mass: 118.710000
    reduced_to: 11
  - symbol: Sn # 12
    coordinates: [  0.479195465890290,  0.513234051185234,  0.570649862745747 ]
    mass: 118.710000
    reduced_to: 12

supercell:
  lattice:
  - [    10.518898303888028,     0.000000000000000,     0.000000000000000 ] # a
  - [    -0.000166019181193,    10.518896331659828,     0.000000000000000 ] # b
  - [     0.000250008774784,    -0.000057149481974,    19.728926796464258 ] # c
  points:
  - symbol: Li # 1
    coordinates: [  0.159653948331172,  0.171121524524423,  0.241031338859128 ]
    mass: 6.940000
    reduced_to: 1
  - symbol: Li # 2
    coordinates: [  0.492987281664505,  0.171121524524423,  0.241031338859128 ]
    mass: 6.940000
    reduced_to: 1
  - symbol: Li # 3
    coordinates: [  0.826320614997839,  0.171121524524423,  0.241031338859128 ]
    mass: 6.940000
    reduced_to: 1
  - symbol: Li # 4
    coordinates: [  0.159653948331172,  0.504454857857757,  0.241031338859128 ]
    mass: 6.940000
    reduced_to: 1
  - symbol: Li # 5
    coordinates: [  0.492987281664505,  0.504454857857757,  0.241031338859128 ]
    mass: 6.940000
    reduced_to: 1
  - symbol: Li # 6
    coordinates: [  0.826320614997839,  0.504454857857757,  0.241031338859128 ]
    mass: 6.940000
    reduced_to: 1
  - symbol: Li # 7
    coordinates: [  0.159653948331172,  0.837788191191090,  0.241031338859128 ]
    mass: 6.940000
    reduced_to: 1
  - symbol: Li # 8
    coordinates: [  0.492987281664505,  0.837788191191090,  0.241031338859128 ]
    mass: 6.940000
    reduced_to: 1
  - symbol: Li # 9
    coordinates: [  0.826320614997839,  0.837788191191090,  0.241031338859128 ]
    mass: 6.940000
    reduced_to: 1
  - symbol: Li # 10
    coordinates: [  0.326415488578015,  0.004385122965328,  0.656235706037257 ]
    mass: 6.940000
    reduced_to: 10
  - symbol: Li # 11
    coordinates: [  0.659748821911348,  0.004385122965328,  0.656235706037257 ]
    mass: 6.940000
    reduced_to: 10
  - symbol: Li # 12
    coordinates: [  0.993082155244681,  0.004385122965328,  0.656235706037257 ]
    mass: 6.940000
    reduced_to: 10
  - symbol: Li # 13
    coordinates: [  0.326415488578015,  0.337718456298661,  0.656235706037257 ]
    mass: 6.940000
    reduced_to: 10
  - symbol: Li # 14
    coordinates: [  0.659748821911348,  0.337718456298661,  0.656235706037257 ]
    mass: 6.940000
    reduced_to: 10
  - symbol: Li # 15
    coordinates: [  0.993082155244681,  0.337718456298661,  0.656235706037257 ]
    mass: 6.940000
    reduced_to: 10
  - symbol: Li # 16
    coordinates: [  0.326415488578015,  0.671051789631994,  0.656235706037257 ]
    mass: 6.940000
    reduced_to: 10
  - symbol: Li # 17
    coordinates: [  0.659748821911348,  0.671051789631994,  0.656235706037257 ]
    mass: 6.940000
    reduced_to: 10
  - symbol: Li # 18
    coordinates: [  0.993082155244681,  0.671051789631994,  0.656235706037257 ]
    mass: 6.940000
    reduced_to: 10
  - symbol: Li # 19
    coordinates: [  0.326272525643800,  0.004485109347339,  0.157355754452351 ]
    mass: 6.940000
    reduced_to: 19
  - symbol: Li # 20
    coordinates: [  0.659605858977134,  0.004485109347339,  0.157355754452351 ]
    mass: 6.940000
    reduced_to: 19
  - symbol: Li # 21
    coordinates: [  0.992939192310467,  0.004485109347339,  0.157355754452351 ]
    mass: 6.940000
    reduced_to: 19
  - symbol: Li # 22
    coordinates: [  0.326272525643800,  0.337818442680672,  0.157355754452351 ]
    mass: 6.940000
    reduced_to: 19
  - symbol: Li # 23
    coordinates: [  0.659605858977134,  0.337818442680672,  0.157355754452351 ]
    mass: 6.940000
    reduced_to: 19
  - symbol: Li # 24
    coordinates: [  0.992939192310467,  0.337818442680672,  0.157355754452351 ]
    mass: 6.940000
    reduced_to: 19
  - symbol: Li # 25
    coordinates: [  0.326272525643800,  0.671151776014005,  0.157355754452351 ]
    mass: 6.940000
    reduced_to: 19
  - symbol: Li # 26
    coordinates: [  0.659605858977134,  0.671151776014005,  0.157355754452351 ]
    mass: 6.940000
    reduced_to: 19
  - symbol: Li # 27
    coordinates: [  0.992939192310467,  0.671151776014005,  0.157355754452351 ]
    mass: 6.940000
    reduced_to: 19
  - symbol: Li # 28
    coordinates: [  0.326496355680924,  0.004631074894982,  0.996172971286138 ]
    mass: 6.940000
    reduced_to: 28
  - symbol: Li # 29
    coordinates: [  0.659829689014257,  0.004631074894982,  0.996172971286138 ]
    mass: 6.940000
    reduced_to: 28
  - symbol: Li # 30
    coordinates: [  0.993163022347590,  0.004631074894982,  0.996172971286138 ]
    mass: 6.940000
    reduced_to: 28
  - symbol: Li # 31
    coordinates: [  0.326496355680924,  0.337964408228315,  0.996172971286138 ]
    mass: 6.940000
    reduced_to: 28
  - symbol: Li # 32
    coordinates: [  0.659829689014257,  0.337964408228315,  0.996172971286138 ]
    mass: 6.940000
    reduced_to: 28
  - symbol: Li # 33
    coordinates: [  0.993163022347590,  0.337964408228315,  0.996172971286138 ]
    mass: 6.940000
    reduced_to: 28
  - symbol: Li # 34
    coordinates: [  0.326496355680924,  0.671297741561649,  0.996172971286138 ]
    mass: 6.940000
    reduced_to: 28
  - symbol: Li # 35
    coordinates: [  0.659829689014257,  0.671297741561649,  0.996172971286138 ]
    mass: 6.940000
    reduced_to: 28
  - symbol: Li # 36
    coordinates: [  0.993163022347590,  0.671297741561649,  0.996172971286138 ]
    mass: 6.940000
    reduced_to: 28
  - symbol: Li # 37
    coordinates: [  0.326395662283882,  0.004432931500485,  0.324644087224481 ]
    mass: 6.940000
    reduced_to: 37
  - symbol: Li # 38
    coordinates: [  0.659728995617215,  0.004432931500485,  0.324644087224481 ]
    mass: 6.940000
    reduced_to: 37
  - symbol: Li # 39
    coordinates: [  0.993062328950549,  0.004432931500485,  0.324644087224481 ]
    mass: 6.940000
    reduced_to: 37
  - symbol: Li # 40
    coordinates: [  0.326395662283882,  0.337766264833818,  0.324644087224481 ]
    mass: 6.940000
    reduced_to: 37
  - symbol: Li # 41
    coordinates: [  0.659728995617215,  0.337766264833818,  0.324644087224481 ]
    mass: 6.940000
    reduced_to: 37
  - symbol: Li # 42
    coordinates: [  0.993062328950549,  0.337766264833818,  0.324644087224481 ]
    mass: 6.940000
    reduced_to: 37
  - symbol: Li # 43
    coordinates: [  0.326395662283882,  0.671099598167151,  0.324644087224481 ]
    mass: 6.940000
    reduced_to: 37
  - symbol: Li # 44
    coordinates: [  0.659728995617215,  0.671099598167151,  0.324644087224481 ]
    mass: 6.940000
    reduced_to: 37
  - symbol: Li # 45
    coordinates: [  0.993062328950549,  0.671099598167151,  0.324644087224481 ]
    mass: 6.940000
    reduced_to: 37
  - symbol: Li # 46
    coordinates: [  0.326381045387643,  0.004425004385518,  0.486013460838052 ]
    mass: 6.940000
    reduced_to: 46
  - symbol: Li # 47
    coordinates: [  0.659714378720976,  0.004425004385518,  0.486013460838052 ]
    mass: 6.940000
    reduced_to: 46
  - symbol: Li # 48
    coordinates: [  0.993047712054310,  0.004425004385518,  0.486013460838052 ]
    mass: 6.940000
    reduced_to: 46
  - symbol: Li # 49
    coordinates: [  0.326381045387643,  0.337758337718851,  0.486013460838052 ]
    mass: 6.940000
    reduced_to: 46
  - symbol: Li # 50
    coordinates: [  0.659714378720976,  0.337758337718851,  0.486013460838052 ]
    mass: 6.940000
    reduced_to: 46
  - symbol: Li # 51
    coordinates: [  0.993047712054310,  0.337758337718851,  0.486013460838052 ]
    mass: 6.940000
    reduced_to: 46
  - symbol: Li # 52
    coordinates: [  0.326381045387643,  0.671091671052185,  0.486013460838052 ]
    mass: 6.940000
    reduced_to: 46
  - symbol: Li # 53
    coordinates: [  0.659714378720976,  0.671091671052185,  0.486013460838052 ]
    mass: 6.940000
    reduced_to: 46
  - symbol: Li # 54
    coordinates: [  0.993047712054310,  0.671091671052185,  0.486013460838052 ]
    mass: 6.940000
    reduced_to: 46
  - symbol: Li # 55
    coordinates: [  0.326461045972148,  0.004464767569393,  0.826548647641420 ]
    mass: 6.940000
    reduced_to: 55
  - symbol: Li # 56
    coordinates: [  0.659794379305481,  0.004464767569393,  0.826548647641420 ]
    mass: 6.940000
    reduced_to: 55
  - symbol: Li # 57
    coordinates: [  0.993127712638814,  0.004464767569393,  0.826548647641420 ]
    mass: 6.940000
    reduced_to: 55
  - symbol: Li # 58
    coordinates: [  0.326461045972148,  0.337798100902726,  0.826548647641420 ]
    mass: 6.940000
    reduced_to: 55
  - symbol: Li # 59
    coordinates: [  0.659794379305481,  0.337798100902726,  0.826548647641420 ]
    mass: 6.940000
    reduced_to: 55
  - symbol: Li # 60
    coordinates: [  0.993127712638814,  0.337798100902726,  0.826548647641420 ]
    mass: 6.940000
    reduced_to: 55
  - symbol: Li # 61
    coordinates: [  0.326461045972148,  0.671131434236059,  0.826548647641420 ]
    mass: 6.940000
    reduced_to: 55
  - symbol: Li # 62
    coordinates: [  0.659794379305481,  0.671131434236059,  0.826548647641420 ]
    mass: 6.940000
    reduced_to: 55
  - symbol: Li # 63
    coordinates: [  0.993127712638814,  0.671131434236059,  0.826548647641420 ]
    mass: 6.940000
    reduced_to: 55
  - symbol: Sn # 64
    coordinates: [  0.159838725456444,  0.171250331394664,  0.911840872485740 ]
    mass: 118.710000
    reduced_to: 64
  - symbol: Sn # 65
    coordinates: [  0.493172058789778,  0.171250331394664,  0.911840872485740 ]
    mass: 118.710000
    reduced_to: 64
  - symbol: Sn # 66
    coordinates: [  0.826505392123111,  0.171250331394664,  0.911840872485740 ]
    mass: 118.710000
    reduced_to: 64
  - symbol: Sn # 67
    coordinates: [  0.159838725456444,  0.504583664727997,  0.911840872485740 ]
    mass: 118.710000
    reduced_to: 64
  - symbol: Sn # 68
    coordinates: [  0.493172058789778,  0.504583664727997,  0.911840872485740 ]
    mass: 118.710000
    reduced_to: 64
  - symbol: Sn # 69
    coordinates: [  0.826505392123111,  0.504583664727997,  0.911840872485740 ]
    mass: 118.710000
    reduced_to: 64
  - symbol: Sn # 70
    coordinates: [  0.159838725456444,  0.837916998061331,  0.911840872485740 ]
    mass: 118.710000
    reduced_to: 64
  - symbol: Sn # 71
    coordinates: [  0.493172058789778,  0.837916998061331,  0.911840872485740 ]
    mass: 118.710000
    reduced_to: 64
  - symbol: Sn # 72
    coordinates: [  0.826505392123111,  0.837916998061331,  0.911840872485740 ]
    mass: 118.710000
    reduced_to: 64
  - symbol: Sn # 73
    coordinates: [  0.159724817943423,  0.171096556509307,  0.399673941519494 ]
    mass: 118.710000
    reduced_to: 73
  - symbol: Sn # 74
    coordinates: [  0.493058151276757,  0.171096556509307,  0.399673941519494 ]
    mass: 118.710000
    reduced_to: 73
  - symbol: Sn # 75
    coordinates: [  0.826391484610090,  0.171096556509307,  0.399673941519494 ]
    mass: 118.710000
    reduced_to: 73
  - symbol: Sn # 76
    coordinates: [  0.159724817943423,  0.504429889842641,  0.399673941519494 ]
    mass: 118.710000
    reduced_to: 73
  - symbol: Sn # 77
    coordinates: [  0.493058151276757,  0.504429889842641,  0.399673941519494 ]
    mass: 118.710000
    reduced_to: 73
  - symbol: Sn # 78
    coordinates: [  0.826391484610090,  0.504429889842641,  0.399673941519494 ]
    mass: 118.710000
    reduced_to: 73
  - symbol: Sn # 79
    coordinates: [  0.159724817943423,  0.837763223175974,  0.399673941519494 ]
    mass: 118.710000
    reduced_to: 73
  - symbol: Sn # 80
    coordinates: [  0.493058151276757,  0.837763223175974,  0.399673941519494 ]
    mass: 118.710000
    reduced_to: 73
  - symbol: Sn # 81
    coordinates: [  0.826391484610090,  0.837763223175974,  0.399673941519494 ]
    mass: 118.710000
    reduced_to: 73
  - symbol: Sn # 82
    coordinates: [  0.159679355219852,  0.171198694618827,  0.082428292456236 ]
    mass: 118.710000
    reduced_to: 82
  - symbol: Sn # 83
    coordinates: [  0.493012688553185,  0.171198694618827,  0.082428292456236 ]
    mass: 118.710000
    reduced_to: 82
  - symbol: Sn # 84
    coordinates: [  0.826346021886519,  0.171198694618827,  0.082428292456236 ]
    mass: 118.710000
    reduced_to: 82
  - symbol: Sn # 85
    coordinates: [  0.159679355219852,  0.504532027952161,  0.082428292456236 ]
    mass: 118.710000
    reduced_to: 82
  - symbol: Sn # 86
    coordinates: [  0.493012688553185,  0.504532027952161,  0.082428292456236 ]
    mass: 118.710000
    reduced_to: 82
  - symbol: Sn # 87
    coordinates: [  0.826346021886519,  0.504532027952161,  0.082428292456236 ]
    mass: 118.710000
    reduced_to: 82
  - symbol: Sn # 88
    coordinates: [  0.159679355219852,  0.837865361285494,  0.082428292456236 ]
    mass: 118.710000
    reduced_to: 82
  - symbol: Sn # 89
    coordinates: [  0.493012688553185,  0.837865361285494,  0.082428292456236 ]
    mass: 118.710000
    reduced_to: 82
  - symbol: Sn # 90
    coordinates: [  0.826346021886519,  0.837865361285494,  0.082428292456236 ]
    mass: 118.710000
    reduced_to: 82
  - symbol: Sn # 91
    coordinates: [  0.159759322723879,  0.171059472127896,  0.741396899981239 ]
    mass: 118.710000
    reduced_to: 91
  - symbol: Sn # 92
    coordinates: [  0.493092656057212,  0.171059472127896,  0.741396899981239 ]
    mass: 118.710000
    reduced_to: 91
  - symbol: Sn # 93
    coordinates: [  0.826425989390546,  0.171059472127896,  0.741396899981239 ]
    mass: 118.710000
    reduced_to: 91
  - symbol: Sn # 94
    coordinates: [  0.159759322723879,  0.504392805461229,  0.741396899981239 ]
    mass: 118.710000
    reduced_to: 91
  - symbol: Sn # 95
    coordinates: [  0.493092656057212,  0.504392805461229,  0.741396899981239 ]
    mass: 118.710000
    reduced_to: 91
  - symbol: Sn # 96
    coordinates: [  0.826425989390546,  0.504392805461229,  0.741396899981239 ]
    mass: 118.710000
    reduced_to: 91
  - symbol: Sn # 97
    coordinates: [  0.159759322723879,  0.837726138794563,  0.741396899981239 ]
    mass: 118.710000
    reduced_to: 91
  - symbol: Sn # 98
    coordinates: [  0.493092656057212,  0.837726138794563,  0.741396899981239 ]
    mass: 118.710000
    reduced_to: 91
  - symbol: Sn # 99
    coordinates: [  0.826425989390546,  0.837726138794563,  0.741396899981239 ]
    mass: 118.710000
    reduced_to: 91
  - symbol: Sn # 100
    coordinates: [  0.159731821963430,  0.171078017061745,  0.570649862745747 ]
    mass: 118.710000
    reduced_to: 100
  - symbol: Sn # 101
    coordinates: [  0.493065155296763,  0.171078017061745,  0.570649862745747 ]
    mass: 118.710000
    reduced_to: 100
  - symbol: Sn # 102
    coordinates: [  0.826398488630097,  0.171078017061745,  0.570649862745747 ]
    mass: 118.710000
    reduced_to: 100
  - symbol: Sn # 103
    coordinates: [  0.159731821963430,  0.504411350395078,  0.570649862745747 ]
    mass: 118.710000
    reduced_to: 100
  - symbol: Sn # 104
    coordinates: [  0.493065155296763,  0.504411350395078,  0.570649862745747 ]
    mass: 118.710000
    reduced_to: 100
  - symbol: Sn # 105
    coordinates: [  0.826398488630097,  0.504411350395078,  0.570649862745747 ]
    mass: 118.710000
    reduced_to: 100
  - symbol: Sn # 106
    coordinates: [  0.159731821963430,  0.837744683728411,  0.570649862745747 ]
    mass: 118.710000
    reduced_to: 100
  - symbol: Sn # 107
    coordinates: [  0.493065155296763,  0.837744683728411,  0.570649862745747 ]
    mass: 118.710000
    reduced_to: 100
  - symbol: Sn # 108
    coordinates: [  0.826398488630097,  0.837744683728411,  0.570649862745747 ]
    mass: 118.710000
    reduced_to: 100

displacements:
- atom:    1
  displacement:
    [   0.0100000000000000,  0.0000000000000000,  0.0000000000000000 ]
  forces:
  - [  -0.0118651483207941,  0.0000961582409218, -0.0005357520421967 ]
  - [   0.0012829717015848,  0.0000979324395303, -0.0005321576027200 ]
  - [   0.0012705485569313,  0.0000942252954701, -0.0005340558709577 ]
  - [   0.0002449715393595,  0.0000940594181884, -0.0005318659823388 ]
  - [   0.0000785804804764, -0.0000844737078296, -0.0005316522438079 ]
  - [   0.0001083721363102,  0.0002452677290421, -0.0005325628444552 ]
  - [   0.0002455672074575,  0.0000976676747086, -0.0005302288336679 ]
  - [   0.0000790971389506,  0.0002757949405350, -0.0005299270851538 ]
  - [   0.0001062002047547, -0.0000543452915736, -0.0005305847153068 ]
  - [  -0.0001008762046695,  0.0001842413184932, -0.0149791827425361 ]
  - [  -0.0001060822978616,  0.0001841648772825, -0.0149797480553389 ]
  - [  -0.0001013688743114,  0.0001852496498032, -0.0149799045175314 ]
  - [  -0.0001000818301691,  0.0001868692779681, -0.0149807585403323 ]
  - [  -0.0001039061680785,  0.0001854402944446, -0.0149812065064907 ]
  - [  -0.0001013360451907,  0.0001852239074651, -0.0149794723838568 ]
  - [  -0.0001002815406537,  0.0001860368793132, -0.0149805452674627 ]
  - [  -0.0001037490583258,  0.0001845620572567, -0.0149800255894661 ]
  - [  -0.0001020838099066,  0.0001835068105720, -0.0149789117276669 ]
  - [   0.0023409910500050, -0.0008265208452940,  0.0373631119728088 ]
  - [   0.0012637823820114,  0.0004425831139088,  0.0388866066932678 ]
  - [   0.0023434944450855,  0.0016988664865494,  0.0403916388750076 ]
  - [   0.0023408639244735,  0.0017124244477600,  0.0373633503913879 ]
  - [   0.0012631658464670,  0.0004432387650013,  0.0388871952891350 ]
  - [   0.0023425780236721, -0.0008089989423752,  0.0403900966048241 ]
  - [   0.0011588661000133,  0.0004450229171198,  0.0388921461999416 ]
  - [   0.0011909098830074,  0.0004452019929886,  0.0388849116861820 ]
  - [   0.0011607164051384,  0.0004459461197257,  0.0388779602944851 ]
  - [  -0.0010562706738710, -0.0012889453209937,  0.0123198069632053 ]
  - [  -0.0011337250471115, -0.0011626859195530,  0.0124114416539669 ]
  - [  -0.0010551391169429, -0.0010358649305999,  0.0125011764466763 ]
  - [  -0.0010562168899924, -0.0010377591243014,  0.0123220402747393 ]
  - [  -0.0011334526352584, -0.0011641504243016,  0.0124130342155695 ]
  - [  -0.0010546841658652, -0.0012910059886053,  0.0125030428171158 ]
  - [  -0.0011349902488291, -0.0011639872100204,  0.0123797301203012 ]
  - [  -0.0011442839168012, -0.0011644214391708,  0.0124132987111807 ]
  - [  -0.0011341786012053, -0.0011639032745734,  0.0124457757920027 ]
  - [   0.0007612340850756, -0.0011961767449975, -0.0342542901635170 ]
  - [  -0.0003189420676790,  0.0000743999262340, -0.0357766076922417 ]
  - [   0.0007607650477439,  0.0013326690532267, -0.0372830219566822 ]
  - [   0.0007619130192325,  0.0013432485284284, -0.0342520214617252 ]
  - [  -0.0003198125632480,  0.0000724712153897, -0.0357764512300491 ]
  - [   0.0007615569047630, -0.0011871135793626, -0.0372848808765411 ]
  - [  -0.0004220961127430,  0.0000723537377780, -0.0357811003923416 ]
  - [  -0.0003905918565579,  0.0000733080087230, -0.0357776731252670 ]
  - [  -0.0004228825564496,  0.0000718043011148, -0.0357702672481537 ]
  - [   0.0002996329567395, -0.0001664333540248, -0.0091918334364891 ]
  - [   0.0002224816853413, -0.0000399224991270, -0.0092823281884193 ]
  - [   0.0002994442766067,  0.0000861336957314, -0.0093731172382832 ]
  - [   0.0003001778386533,  0.0000853187084431, -0.0091915261000395 ]
  - [   0.0002222800976597, -0.0000410208886024, -0.0092818774282932 ]
  - [   0.0002994049573317, -0.0001678483240539, -0.0093725994229317 ]
  - [   0.0002210187813034, -0.0000414134774473, -0.0092513505369425 ]
  - [   0.0002109077904606, -0.0000422504381277, -0.0092832464724779 ]
  - [   0.0002208717196481, -0.0000416822949774, -0.0093174297362566 ]
  - [   0.0001537537900731,  0.0004262835427653,  0.0105651048943400 ]
  - [   0.0001506157568656,  0.0004276049730834,  0.0105654960498214 ]
  - [   0.0001546948333271,  0.0004281171713956,  0.0105641642585397 ]
  - [   0.0001534160255687,  0.0004273400118109,  0.0105640543624759 ]
  - [   0.0001504774263594,  0.0004263701848686,  0.0105656925588846 ]
  - [   0.0001539967488497,  0.0004278994165361,  0.0105648599565029 ]
  - [   0.0001530953450128,  0.0004258218104951,  0.0105645963922143 ]
  - [   0.0001513707975391,  0.0004269489436410,  0.0105653619393706 ]
  - [   0.0001532428432256,  0.0004268134944141,  0.0105633055791259 ]
  - [  -0.0006925252964720, -0.0008887895965017,  0.0110146123915911 ]
  - [  -0.0007384950877167, -0.0008885162533261,  0.0109902294352651 ]
  - [  -0.0007404795615003, -0.0008882157271728,  0.0110316853970289 ]
  - [  -0.0007252747891471, -0.0008873875485733,  0.0110114933922887 ]
  - [  -0.0007293743547052, -0.0008962893625721,  0.0110192559659481 ]
  - [  -0.0007310505025089, -0.0008775563910604,  0.0110050914809108 ]
  - [  -0.0007254353258759, -0.0008875670609996,  0.0110106086358428 ]
  - [  -0.0007296043913811, -0.0008775822352618,  0.0110175069421530 ]
  - [  -0.0007290394278243, -0.0008957756217569,  0.0110040176659822 ]
  - [   0.0002160182921216,  0.0000031840754673, -0.0069241225719452 ]
  - [  -0.0000985304213827,  0.0000029144866858, -0.0068679228425026 ]
  - [  -0.0000769497346482,  0.0000033203541534, -0.0069909840822220 ]
  - [   0.0000383394290111,  0.0000056178541854, -0.0069214552640915 ]
  - [  -0.0001584355486557, -0.0000392289366573, -0.0069613531231880 ]
  - [  -0.0001588587620063,  0.0000522138761880, -0.0068779662251472 ]
  - [   0.0000367007451132,  0.0000023744096325, -0.0069209188222885 ]
  - [  -0.0001580169773661,  0.0000473350301036, -0.0069626197218895 ]
  - [  -0.0001580967655173, -0.0000440825024270, -0.0068785548210144 ]
  - [   0.0006714286282659,  0.0002538956468925,  0.0093211382627487 ]
  - [   0.0003542801423464,  0.0002532757644076,  0.0092626363039017 ]
  - [   0.0003776192897931,  0.0002535194798838,  0.0093843266367912 ]
  - [   0.0004913927405141,  0.0002519031986594,  0.0093149170279503 ]
  - [   0.0002981954021379,  0.0002080379636027,  0.0093550533056259 ]
  - [   0.0002952640061267,  0.0002996651164722,  0.0092720687389374 ]
  - [   0.0004918150953017,  0.0002511740312912,  0.0093152448534966 ]
  - [   0.0002980848075822,  0.0002948386536445,  0.0093558430671692 ]
  - [   0.0002957648830488,  0.0002023187262239,  0.0092729926109314 ]
  - [   0.0002958912227768,  0.0007561551174149, -0.0032829970587045 ]
  - [   0.0002976409450639,  0.0007600439712405, -0.0032836673781276 ]
  - [   0.0002984054153785,  0.0007559648365714, -0.0032827914692461 ]
  - [   0.0002961402060464,  0.0007561403326690, -0.0032828904222697 ]
  - [   0.0002965659368783,  0.0007580561796203, -0.0032833297736943 ]
  - [   0.0002967310138047,  0.0007561347447336, -0.0032834424637258 ]
  - [   0.0002952756476589,  0.0007581805693917, -0.0032814086880535 ]
  - [   0.0002966712927446,  0.0007562786340714, -0.0032825446687639 ]
  - [   0.0002992177614942,  0.0007609761087224, -0.0032826371025294 ]
  - [   0.0000161278858286, -0.0001469901762903, -0.0114155542105436 ]
  - [  -0.0000300087194773, -0.0001457466860302, -0.0113935545086861 ]
  - [  -0.0000313686687150, -0.0001460952626076, -0.0114348242059350 ]
  - [  -0.0000160369963851, -0.0001468789996579, -0.0114133544266224 ]
  - [  -0.0000209218851523, -0.0001557817158755, -0.0114197824150324 ]
  - [  -0.0000222391063289, -0.0001376315922244, -0.0114080281928182 ]
  - [  -0.0000155004672706, -0.0001459067570977, -0.0114133954048157 ]
  - [  -0.0000218614004552, -0.0001370610843878, -0.0114194219931960 ]
  - [  -0.0000213595849345, -0.0001540966477478, -0.0114079862833023 ]
- atom:    1
  displacement:
    [  -0.0100000000000000,  0.0000000000000000,  0.0000000000000000 ]
  forces:
  - [   0.0123192779719830,  0.0000952448463067, -0.0005398564971983 ]
  - [  -0.0008172874804586,  0.0000980608165264, -0.0005319613264874 ]
  - [  -0.0008298401953653,  0.0000941557664191, -0.0005348741542548 ]
  - [   0.0002023202832788,  0.0000939524761634, -0.0005324976518750 ]
  - [   0.0003460001316853,  0.0002461195690557, -0.0005318028852344 ]
  - [   0.0003751406620722, -0.0000848235358717, -0.0005322518991306 ]
  - [   0.0002029737952398,  0.0000975589791778, -0.0005310120759532 ]
  - [   0.0003459320869297, -0.0000542386260349, -0.0005301550263539 ]
  - [   0.0003736317739822,  0.0002764308010228, -0.0005302415229380 ]
  - [  -0.0001027528196573,  0.0001835268049035, -0.0149792181327939 ]
  - [  -0.0001023514196277,  0.0001842831406975, -0.0149797173216939 ]
  - [  -0.0001031626015902,  0.0001859173353296, -0.0149797433987260 ]
  - [  -0.0001020341151161,  0.0001876813039416, -0.0149808907881379 ]
  - [  -0.0001001056589303,  0.0001853173598647, -0.0149811096489429 ]
  - [  -0.0001032931322698,  0.0001846675295383, -0.0149793848395348 ]
  - [  -0.0001013484434225,  0.0001861380587798, -0.0149805955588818 ]
  - [  -0.0001015489615384,  0.0001846896484494, -0.0149800451472402 ]
  - [  -0.0001032513100654,  0.0001834527065512, -0.0149789024144411 ]
  - [  -0.0000063255429268,  0.0016987026901916,  0.0403944998979568 ]
  - [   0.0010717231780291,  0.0004428848624229,  0.0388865880668163 ]
  - [  -0.0000050365924835, -0.0008255001157522,  0.0373625233769417 ]
  - [  -0.0000037816789700, -0.0008104448206723,  0.0403917953372002 ]
  - [   0.0010709147900343,  0.0004430767148733,  0.0388871841132641 ]
  - [  -0.0000034403055906,  0.0017128884792328,  0.0373641923069954 ]
  - [   0.0011762429494411,  0.0004449867410585,  0.0388839654624462 ]
  - [   0.0011432542232797,  0.0004451274871826,  0.0388850606977940 ]
  - [   0.0011781891807914,  0.0004460254567675,  0.0388861522078514 ]
  - [  -0.0012201846111566, -0.0010356863494962,  0.0125017706304789 ]
  - [  -0.0011449764715508, -0.0011629641521722,  0.0124112237244844 ]
  - [  -0.0012191330315545, -0.0012897490523756,  0.0123189222067595 ]
  - [  -0.0012200032360852, -0.0012905700132251,  0.0125033985823393 ]
  - [  -0.0011447065044194, -0.0011638455325738,  0.0124127995222807 ]
  - [  -0.0012180616613477, -0.0010374338598922,  0.0123214200139046 ]
  - [  -0.0011408859863877, -0.0011639925651252,  0.0124462433159351 ]