phonopy:
  version: "2.37.1"
  frequency_unit_conversion_factor: 15.633302
  symmetry_tolerance: 1.00000e-05

space_group:
  type: "P1"
  number: 1
  Hall_symbol: "P 1"

primitive_matrix:
- [ -0.000000000000000,  1.000000000000000,  0.000000000000000 ]
- [  1.000000000000000,  0.000000000000000,  0.000000000000000 ]
- [  0.000000000000000,  0.000000000000000, -1.000000000000000 ]

supercell_matrix:
- [   3,   0,   0 ]
- [   0,   3,   0 ]
- [   0,   0,   1 ]

primitive_cell:
  lattice:
  - [     0.000033985040591,     4.713938821342746,     0.000000000000000 ] # a
  - [     4.719564377485852,     0.000000000000000,     0.000000000000000 ] # b
  - [     0.000450277507024,     0.001045754330913,   -15.044802840253260 ] # c
  points:
  - symbol: Sn # 1
    coordinates: [  0.056374773909170,  0.910376175963306,  0.117395288728114 ]
    mass: 118.710000
  - symbol: Sn # 2
    coordinates: [  0.055299972661607,  0.411791217864402,  0.284576573561798 ]
    mass: 118.710000
  - symbol: Sn # 3
    coordinates: [  0.555263008336429,  0.911739753384486,  0.283969358449773 ]
    mass: 118.710000
  - symbol: Sn # 4
    coordinates: [  0.555150643423217,  0.412372394223730,  0.450138471465480 ]
    mass: 118.710000
  - symbol: Sn # 5
    coordinates: [  0.056068816337709,  0.411072277476992,  0.950532541130436 ]
    mass: 118.710000
  - symbol: Sn # 6
    coordinates: [  0.055010170997584,  0.912366165374109,  0.451732454245440 ]
    mass: 118.710000
  - symbol: Sn # 7
    coordinates: [  0.057215348981209,  0.911343227904667,  0.783922803783409 ]
    mass: 118.710000
  - symbol: Sn # 8
    coordinates: [  0.556649952329483,  0.911922960207489,  0.618324134018219 ]
    mass: 118.710000
  - symbol: Sn # 9
    coordinates: [  0.556334837288822,  0.410478813150366,  0.116487611262772 ]
    mass: 118.710000
  - symbol: Sn # 10
    coordinates: [  0.557563545579961,  0.411160063185921,  0.784991056232651 ]
    mass: 118.710000
  - symbol: Sn # 11
    coordinates: [  0.556105953052676,  0.911056703294025,  0.950603070592400 ]
    mass: 118.710000
  - symbol: Sn # 12
    coordinates: [  0.056387779778412,  0.411830171872019,  0.617726405043961 ]
    mass: 118.710000
  reciprocal_lattice: # without 2pi
  - [     0.000000000000000,     0.212136821859549,     0.000014745490689 ] # a*
  - [     0.211883962166167,    -0.000001527572870,     0.000006341391496 ] # b*
  - [     0.000000000000000,     0.000000000000000,    -0.066468135914978 ] # c*

unit_cell:
  lattice:
  - [     4.719564377485852,     0.000000000000000,     0.000000000000000 ] # a
  - [     0.000033985040591,     4.713938821342745,     0.000000000000000 ] # b
  - [    -0.000450277507024,    -0.001045754330913,    15.044802840253260 ] # c
  points:
  - symbol: Sn # 1
    coordinates: [  0.910376175963306,  0.056374773909170,  0.882604711271886 ]
    mass: 118.710000
    reduced_to: 1
  - symbol: Sn # 2
    coordinates: [  0.411791217864402,  0.055299972661607,  0.715423426438202 ]
    mass: 118.710000
    reduced_to: 2
  - symbol: Sn # 3
    coordinates: [  0.911739753384486,  0.555263008336429,  0.716030641550227 ]
    mass: 118.710000
    reduced_to: 3
  - symbol: Sn # 4
    coordinates: [  0.412372394223730,  0.555150643423217,  0.549861528534520 ]
    mass: 118.710000
    reduced_to: 4
  - symbol: Sn # 5
    coordinates: [  0.411072277476992,  0.056068816337709,  0.049467458869564 ]
    mass: 118.710000
    reduced_to: 5
  - symbol: Sn # 6
    coordinates: [  0.912366165374109,  0.055010170997584,  0.548267545754560 ]
    mass: 118.710000
    reduced_to: 6
  - symbol: Sn # 7
    coordinates: [  0.911343227904667,  0.057215348981209,  0.216077196216591 ]
    mass: 118.710000
    reduced_to: 7
  - symbol: Sn # 8
    coordinates: [  0.911922960207489,  0.556649952329483,  0.381675865981781 ]
    mass: 118.710000
    reduced_to: 8
  - symbol: Sn # 9
    coordinates: [  0.410478813150366,  0.556334837288822,  0.883512388737228 ]
    mass: 118.710000
    reduced_to: 9
  - symbol: Sn # 10
    coordinates: [  0.411160063185921,  0.557563545579961,  0.215008943767349 ]
    mass: 118.710000
    reduced_to: 10
  - symbol: Sn # 11
    coordinates: [  0.911056703294025,  0.556105953052676,  0.049396929407600 ]
    mass: 118.710000
    reduced_to: 11
  - symbol: Sn # 12
    coordinates: [  0.411830171872019,  0.056387779778412,  0.382273594956039 ]
    mass: 118.710000
    reduced_to: 12

supercell:
  lattice:
  - [    14.158693132457557,     0.000000000000000,     0.000000000000000 ] # a
  - [     0.000101955121773,    14.141816464028235,     0.000000000000000 ] # b
  - [    -0.000450277507024,    -0.001045754330913,    15.044802840253260 ] # c
  points:
  - symbol: Sn # 1
    coordinates: [  0.303458725321102,  0.018791591303057,  0.882604711271886 ]
    mass: 118.710000
    reduced_to: 1
  - symbol: Sn # 2
    coordinates: [  0.636792058654435,  0.018791591303057,  0.882604711271886 ]
    mass: 118.710000
    reduced_to: 1
  - symbol: Sn # 3
    coordinates: [  0.970125391987769,  0.018791591303057,  0.882604711271886 ]
    mass: 118.710000
    reduced_to: 1
  - symbol: Sn # 4
    coordinates: [  0.303458725321102,  0.352124924636390,  0.882604711271886 ]
    mass: 118.710000
    reduced_to: 1
  - symbol: Sn # 5
    coordinates: [  0.636792058654435,  0.352124924636390,  0.882604711271886 ]
    mass: 118.710000
    reduced_to: 1
  - symbol: Sn # 6
    coordinates: [  0.970125391987769,  0.352124924636390,  0.882604711271886 ]
    mass: 118.710000
    reduced_to: 1
  - symbol: Sn # 7
    coordinates: [  0.303458725321102,  0.685458257969723,  0.882604711271886 ]
    mass: 118.710000
    reduced_to: 1
  - symbol: Sn # 8
    coordinates: [  0.636792058654435,  0.685458257969723,  0.882604711271886 ]
    mass: 118.710000
    reduced_to: 1
  - symbol: Sn # 9
    coordinates: [  0.970125391987769,  0.685458257969723,  0.882604711271886 ]
    mass: 118.710000
    reduced_to: 1
  - symbol: Sn # 10
    coordinates: [  0.137263739288134,  0.018433324220536,  0.715423426438202 ]
    mass: 118.710000
    reduced_to: 10
  - symbol: Sn # 11
    coordinates: [  0.470597072621467,  0.018433324220536,  0.715423426438202 ]
    mass: 118.710000
    reduced_to: 10
  - symbol: Sn # 12
    coordinates: [  0.803930405954800,  0.018433324220536,  0.715423426438202 ]
    mass: 118.710000
    reduced_to: 10
  - symbol: Sn # 13
    coordinates: [  0.137263739288134,  0.351766657553869,  0.715423426438202 ]
    mass: 118.710000
    reduced_to: 10
  - symbol: Sn # 14
    coordinates: [  0.470597072621467,  0.351766657553869,  0.715423426438202 ]
    mass: 118.710000
    reduced_to: 10
  - symbol: Sn # 15
    coordinates: [  0.803930405954800,  0.351766657553869,  0.715423426438202 ]
    mass: 118.710000
    reduced_to: 10
  - symbol: Sn # 16
    coordinates: [  0.137263739288134,  0.685099990887202,  0.715423426438202 ]
    mass: 118.710000
    reduced_to: 10
  - symbol: Sn # 17
    coordinates: [  0.470597072621467,  0.685099990887202,  0.715423426438202 ]
    mass: 118.710000
    reduced_to: 10
  - symbol: Sn # 18
    coordinates: [  0.803930405954800,  0.685099990887202,  0.715423426438202 ]
    mass: 118.710000
    reduced_to: 10
  - symbol: Sn # 19
    coordinates: [  0.303913251128162,  0.185087669445476,  0.716030641550227 ]
    mass: 118.710000
    reduced_to: 19
  - symbol: Sn # 20
    coordinates: [  0.637246584461495,  0.185087669445476,  0.716030641550227 ]
    mass: 118.710000
    reduced_to: 19
  - symbol: Sn # 21
    coordinates: [  0.970579917794829,  0.185087669445476,  0.716030641550227 ]
    mass: 118.710000
    reduced_to: 19
  - symbol: Sn # 22
    coordinates: [  0.303913251128162,  0.518421002778810,  0.716030641550227 ]
    mass: 118.710000
    reduced_to: 19
  - symbol: Sn # 23
    coordinates: [  0.637246584461495,  0.518421002778810,  0.716030641550227 ]
    mass: 118.710000
    reduced_to: 19
  - symbol: Sn # 24
    coordinates: [  0.970579917794829,  0.518421002778810,  0.716030641550227 ]
    mass: 118.710000
    reduced_to: 19
  - symbol: Sn # 25
    coordinates: [  0.303913251128162,  0.851754336112143,  0.716030641550227 ]
    mass: 118.710000
    reduced_to: 19
  - symbol: Sn # 26
    coordinates: [  0.637246584461495,  0.851754336112143,  0.716030641550227 ]
    mass: 118.710000
    reduced_to: 19
  - symbol: Sn # 27
    coordinates: [  0.970579917794829,  0.851754336112143,  0.716030641550227 ]
    mass: 118.710000
    reduced_to: 19
  - symbol: Sn # 28
    coordinates: [  0.137457464741243,  0.185050214474406,  0.549861528534520 ]
    mass: 118.710000
    reduced_to: 28
  - symbol: Sn # 29
    coordinates: [  0.470790798074577,  0.185050214474406,  0.549861528534520 ]
    mass: 118.710000
    reduced_to: 28
  - symbol: Sn # 30
    coordinates: [  0.804124131407910,  0.185050214474406,  0.549861528534520 ]
    mass: 118.710000
    reduced_to: 28
  - symbol: Sn # 31
    coordinates: [  0.137457464741243,  0.518383547807739,  0.549861528534520 ]
    mass: 118.710000
    reduced_to: 28
  - symbol: Sn # 32
    coordinates: [  0.470790798074577,  0.518383547807739,  0.549861528534520 ]
    mass: 118.710000
    reduced_to: 28
  - symbol: Sn # 33
    coordinates: [  0.804124131407910,  0.518383547807739,  0.549861528534520 ]
    mass: 118.710000
    reduced_to: 28
  - symbol: Sn # 34
    coordinates: [  0.137457464741243,  0.851716881141072,  0.549861528534520 ]
    mass: 118.710000
    reduced_to: 28
  - symbol: Sn # 35
    coordinates: [  0.470790798074577,  0.851716881141072,  0.549861528534520 ]
    mass: 118.710000
    reduced_to: 28
  - symbol: Sn # 36
    coordinates: [  0.804124131407910,  0.851716881141072,  0.549861528534520 ]
    mass: 118.710000
    reduced_to: 28
  - symbol: Sn # 37
    coordinates: [  0.137024092492331,  0.018689605445903,  0.049467458869564 ]
    mass: 118.710000
    reduced_to: 37
  - symbol: Sn # 38
    coordinates: [  0.470357425825664,  0.018689605445903,  0.049467458869564 ]
    mass: 118.710000
    reduced_to: 37
  - symbol: Sn # 39
    coordinates: [  0.803690759158997,  0.018689605445903,  0.049467458869564 ]
    mass: 118.710000
    reduced_to: 37
  - symbol: Sn # 40
    coordinates: [  0.137024092492331,  0.352022938779236,  0.049467458869564 ]
    mass: 118.710000
    reduced_to: 37
  - symbol: Sn # 41
    coordinates: [  0.470357425825664,  0.352022938779236,  0.049467458869564 ]
    mass: 118.710000
    reduced_to: 37
  - symbol: Sn # 42
    coordinates: [  0.803690759158997,  0.352022938779236,  0.049467458869564 ]
    mass: 118.710000
    reduced_to: 37
  - symbol: Sn # 43
    coordinates: [  0.137024092492331,  0.685356272112570,  0.049467458869564 ]
    mass: 118.710000
    reduced_to: 37
  - symbol: Sn # 44
    coordinates: [  0.470357425825664,  0.685356272112570,  0.049467458869564 ]
    mass: 118.710000
    reduced_to: 37
  - symbol: Sn # 45
    coordinates: [  0.803690759158997,  0.685356272112570,  0.049467458869564 ]
    mass: 118.710000
    reduced_to: 37
  - symbol: Sn # 46
    coordinates: [  0.304122055124703,  0.018336723665861,  0.548267545754560 ]
    mass: 118.710000
    reduced_to: 46
  - symbol: Sn # 47
    coordinates: [  0.637455388458036,  0.018336723665861,  0.548267545754560 ]
    mass: 118.710000
    reduced_to: 46
  - symbol: Sn # 48
    coordinates: [  0.970788721791370,  0.018336723665861,  0.548267545754560 ]
    mass: 118.710000
    reduced_to: 46
  - symbol: Sn # 49
    coordinates: [  0.304122055124703,  0.351670056999195,  0.548267545754560 ]
    mass: 118.710000
    reduced_to: 46
  - symbol: Sn # 50
    coordinates: [  0.637455388458036,  0.351670056999195,  0.548267545754560 ]
    mass: 118.710000
    reduced_to: 46
  - symbol: Sn # 51
    coordinates: [  0.970788721791370,  0.351670056999195,  0.548267545754560 ]
    mass: 118.710000
    reduced_to: 46
  - symbol: Sn # 52
    coordinates: [  0.304122055124703,  0.685003390332528,  0.548267545754560 ]
    mass: 118.710000
    reduced_to: 46
  - symbol: Sn # 53
    coordinates: [  0.637455388458036,  0.685003390332528,  0.548267545754560 ]
    mass: 118.710000
    reduced_to: 46
  - symbol: Sn # 54
    coordinates: [  0.970788721791370,  0.685003390332528,  0.548267545754560 ]
    mass: 118.710000
    reduced_to: 46
  - symbol: Sn # 55
    coordinates: [  0.303781075968222,  0.019071782993736,  0.216077196216591 ]
    mass: 118.710000
    reduced_to: 55
  - symbol: Sn # 56
    coordinates: [  0.637114409301556,  0.019071782993736,  0.216077196216591 ]
    mass: 118.710000
    reduced_to: 55
  - symbol: Sn # 57
    coordinates: [  0.970447742634889,  0.019071782993736,  0.216077196216591 ]
    mass: 118.710000
    reduced_to: 55
  - symbol: Sn # 58
    coordinates: [  0.303781075968222,  0.352405116327070,  0.216077196216591 ]
    mass: 118.710000
    reduced_to: 55
  - symbol: Sn # 59
    coordinates: [  0.637114409301556,  0.352405116327070,  0.216077196216591 ]
    mass: 118.710000
    reduced_to: 55
  - symbol: Sn # 60
    coordinates: [  0.970447742634889,  0.352405116327070,  0.216077196216591 ]
    mass: 118.710000
    reduced_to: 55
  - symbol: Sn # 61
    coordinates: [  0.303781075968222,  0.685738449660403,  0.216077196216591 ]
    mass: 118.710000
    reduced_to: 55
  - symbol: Sn # 62
    coordinates: [  0.637114409301556,  0.685738449660403,  0.216077196216591 ]
    mass: 118.710000
    reduced_to: 55
  - symbol: Sn # 63
    coordinates: [  0.970447742634889,  0.685738449660403,  0.216077196216591 ]
    mass: 118.710000
    reduced_to: 55
  - symbol: Sn # 64
    coordinates: [  0.303974320069163,  0.185549984109828,  0.381675865981781 ]
    mass: 118.710000
    reduced_to: 64
  - symbol: Sn # 65
    coordinates: [  0.637307653402496,  0.185549984109828,  0.381675865981781 ]
    mass: 118.710000
    reduced_to: 64
  - symbol: Sn # 66
    coordinates: [  0.970640986735830,  0.185549984109828,  0.381675865981781 ]
    mass: 118.710000
    reduced_to: 64
  - symbol: Sn # 67
    coordinates: [  0.303974320069163,  0.518883317443161,  0.381675865981781 ]
    mass: 118.710000
    reduced_to: 64
  - symbol: Sn # 68
    coordinates: [  0.637307653402496,  0.518883317443161,  0.381675865981781 ]
    mass: 118.710000
    reduced_to: 64
  - symbol: Sn # 69
    coordinates: [  0.970640986735830,  0.518883317443161,  0.381675865981781 ]
    mass: 118.710000
    reduced_to: 64
  - symbol: Sn # 70
    coordinates: [  0.303974320069163,  0.852216650776494,  0.381675865981781 ]
    mass: 118.710000
    reduced_to: 64
  - symbol: Sn # 71
    coordinates: [  0.637307653402496,  0.852216650776494,  0.381675865981781 ]
    mass: 118.710000
    reduced_to: 64
  - symbol: Sn # 72
    coordinates: [  0.970640986735830,  0.852216650776494,  0.381675865981781 ]
    mass: 118.710000
    reduced_to: 64
  - symbol: Sn # 73
    coordinates: [  0.136826271050122,  0.185444945762941,  0.883512388737228 ]
    mass: 118.710000
    reduced_to: 73
  - symbol: Sn # 74
    coordinates: [  0.470159604383455,  0.185444945762941,  0.883512388737228 ]
    mass: 118.710000
    reduced_to: 73
  - symbol: Sn # 75
    coordinates: [  0.803492937716789,  0.185444945762941,  0.883512388737228 ]
    mass: 118.710000
    reduced_to: 73
  - symbol: Sn # 76
    coordinates: [  0.136826271050122,  0.518778279096274,  0.883512388737228 ]
    mass: 118.710000
    reduced_to: 73
  - symbol: Sn # 77
    coordinates: [  0.470159604383455,  0.518778279096274,  0.883512388737228 ]
    mass: 118.710000
    reduced_to: 73
  - symbol: Sn # 78
    coordinates: [  0.803492937716789,  0.518778279096274,  0.883512388737228 ]
    mass: 118.710000
    reduced_to: 73
  - symbol: Sn # 79
    coordinates: [  0.136826271050122,  0.852111612429607,  0.883512388737228 ]
    mass: 118.710000
    reduced_to: 73
  - symbol: Sn # 80
    coordinates: [  0.470159604383455,  0.852111612429607,  0.883512388737228 ]
    mass: 118.710000
    reduced_to: 73
  - symbol: Sn # 81
    coordinates: [  0.803492937716789,  0.852111612429607,  0.883512388737228 ]
    mass: 118.710000
    reduced_to: 73
  - symbol: Sn # 82
    coordinates: [  0.137053354395307,  0.185854515193320,  0.215008943767349 ]
    mass: 118.710000
    reduced_to: 82
  - symbol: Sn # 83
    coordinates: [  0.470386687728640,  0.185854515193320,  0.215008943767349 ]
    mass: 118.710000
    reduced_to: 82
  - symbol: Sn # 84
    coordinates: [  0.803720021061973,  0.185854515193320,  0.215008943767349 ]
    mass: 118.710000
    reduced_to: 82
  - symbol: Sn # 85
    coordinates: [  0.137053354395307,  0.519187848526654,  0.215008943767349 ]
    mass: 118.710000
    reduced_to: 82
  - symbol: Sn # 86
    coordinates: [  0.470386687728640,  0.519187848526654,  0.215008943767349 ]
    mass: 118.710000
    reduced_to: 82
  - symbol: Sn # 87
    coordinates: [  0.803720021061973,  0.519187848526654,  0.215008943767349 ]
    mass: 118.710000
    reduced_to: 82
  - symbol: Sn # 88
    coordinates: [  0.137053354395307,  0.852521181859987,  0.215008943767349 ]
    mass: 118.710000
    reduced_to: 82
  - symbol: Sn # 89
    coordinates: [  0.470386687728640,  0.852521181859987,  0.215008943767349 ]
    mass: 118.710000
    reduced_to: 82
  - symbol: Sn # 90
    coordinates: [  0.803720021061973,  0.852521181859987,  0.215008943767349 ]
    mass: 118.710000
    reduced_to: 82
  - symbol: Sn # 91
    coordinates: [  0.303685567764675,  0.185368651017559,  0.049396929407600 ]
    mass: 118.710000
    reduced_to: 91
  - symbol: Sn # 92
    coordinates: [  0.637018901098008,  0.185368651017559,  0.049396929407600 ]
    mass: 118.710000
    reduced_to: 91
  - symbol: Sn # 93
    coordinates: [  0.970352234431342,  0.185368651017559,  0.049396929407600 ]
    mass: 118.710000
    reduced_to: 91
  - symbol: Sn # 94
    coordinates: [  0.303685567764675,  0.518701984350892,  0.049396929407600 ]
    mass: 118.710000
    reduced_to: 91
  - symbol: Sn # 95
    coordinates: [  0.637018901098008,  0.518701984350892,  0.049396929407600 ]
    mass: 118.710000
    reduced_to: 91
  - symbol: Sn # 96
    coordinates: [  0.970352234431342,  0.518701984350892,  0.049396929407600 ]
    mass: 118.710000
    reduced_to: 91
  - symbol: Sn # 97
    coordinates: [  0.303685567764675,  0.852035317684225,  0.049396929407600 ]
    mass: 118.710000
    reduced_to: 91
  - symbol: Sn # 98
    coordinates: [  0.637018901098008,  0.852035317684225,  0.049396929407600 ]
    mass: 118.710000
    reduced_to: 91
  - symbol: Sn # 99
    coordinates: [  0.970352234431342,  0.852035317684225,  0.049396929407600 ]
    mass: 118.710000
    reduced_to: 91
  - symbol: Sn # 100
    coordinates: [  0.137276723957340,  0.018795926592804,  0.382273594956039 ]
    mass: 118.710000
    reduced_to: 100
  - symbol: Sn # 101
    coordinates: [  0.470610057290673,  0.018795926592804,  0.382273594956039 ]
    mass: 118.710000
    reduced_to: 100
  - symbol: Sn # 102
    coordinates: [  0.803943390624006,  0.018795926592804,  0.382273594956039 ]
    mass: 118.710000
    reduced_to: 100
  - symbol: Sn # 103
    coordinates: [  0.137276723957340,  0.352129259926137,  0.382273594956039 ]
    mass: 118.710000
    reduced_to: 100
  - symbol: Sn # 104
    coordinates: [  0.470610057290673,  0.352129259926137,  0.382273594956039 ]
    mass: 118.710000
    reduced_to: 100
  - symbol: Sn # 105
    coordinates: [  0.803943390624006,  0.352129259926137,  0.382273594956039 ]
    mass: 118.710000
    reduced_to: 100
  - symbol: Sn # 106
    coordinates: [  0.137276723957340,  0.685462593259471,  0.382273594956039 ]
    mass: 118.710000
    reduced_to: 100
  - symbol: Sn # 107
    coordinates: [  0.470610057290673,  0.685462593259471,  0.382273594956039 ]
    mass: 118.710000
    reduced_to: 100
  - symbol: Sn # 108
    coordinates: [  0.803943390624006,  0.685462593259471,  0.382273594956039 ]
    mass: 118.710000
    reduced_to: 100

displacements:
- atom:    1
  displacement:
    [   0.0100000000000000,  0.0000000000000000,  0.0000000000000000 ]
  forces:
  - [  -0.0110563179478049, -0.0013656972441822, -0.0063319797627628 ]
  - [   0.0029482764657587, -0.0013643408892676, -0.0063090166077018 ]
  - [   0.0030609772074968, -0.0013670884072781, -0.0062980465590954 ]
  - [   0.0018122672336176, -0.0013649053871632, -0.0063038263469934 ]
  - [   0.0022117705084383, -0.0011935854563490, -0.0063048163428903 ]
  - [   0.0022064864169806, -0.0015338892117143, -0.0063042636029422 ]
  - [   0.0018129440722987, -0.0013663324061781, -0.0063035497441888 ]
  - [   0.0022126657422632, -0.0015394447837025, -0.0063045183196664 ]
  - [   0.0022064386866987, -0.0011977576650679, -0.0063032847829163 ]
  - [  -0.0000332753988914,  0.0004921107320115,  0.0088646635413170 ]
  - [  -0.0000392848887714,  0.0004824515781365,  0.0065452069975436 ]
  - [  -0.0010006285738200,  0.0004872226854786,  0.0077017657458782 ]
  - [  -0.0008443469996564,  0.0003278519725427,  0.0079042352735996 ]
  - [  -0.0008425187552348,  0.0006470560329035,  0.0074982112273574 ]
  - [  -0.0008804626413621,  0.0004860525950789,  0.0077024810016155 ]
  - [  -0.0008429794106632,  0.0006447024643421,  0.0079028941690922 ]
  - [  -0.0008424373227172,  0.0003267314750701,  0.0075002619996667 ]
  - [  -0.0008799505303614,  0.0004867183743045,  0.0077024744823575 ]
  - [  -0.0008919090032578,  0.0008284150972031,  0.0021133837290108 ]
  - [   0.0000723244156688,  0.0009842050494626,  0.0019299176055938 ]
  - [   0.0000733709894121,  0.0006634616293013,  0.0022994768805802 ]
  - [  -0.0002796777407639,  0.0008244925993495,  0.0021133844275028 ]
  - [  -0.0003254389739595,  0.0008248868398368,  0.0021225798409432 ]
  - [  -0.0003244627732784,  0.0008238623850048,  0.0021045622415841 ]
  - [  -0.0008901599212550,  0.0008195745176636,  0.0021119937300682 ]
  - [   0.0000738779199310,  0.0006623310036957,  0.0019274686928838 ]
  - [   0.0000746211735532,  0.0009864668827504,  0.0023009572178125 ]
  - [  -0.0007936738547869,  0.0003991640987806, -0.0093275029212236 ]
  - [  -0.0007924509118311,  0.0007331813103519, -0.0096250679343939 ]
  - [  -0.0008467829320580,  0.0005670823738910, -0.0094759240746498 ]
  - [  -0.0008190803928301,  0.0005669649690390, -0.0094934627413750 ]
  - [  -0.0008199722506106,  0.0005678064771928, -0.0094607854261994 ]
  - [  -0.0008096190285869,  0.0005671795806848, -0.0094775911420584 ]
  - [  -0.0007934591267258,  0.0007337952265516, -0.0093278605490923 ]
  - [  -0.0007925435784273,  0.0004004305228591, -0.0096241123974323 ]
  - [  -0.0008472570916638,  0.0005670093814842, -0.0094763590022922 ]
  - [   0.0003183819353580,  0.0018261792138219, -0.0074822208844125 ]
  - [   0.0003312313929200,  0.0018255453323945, -0.0051158284768462 ]
  - [  -0.0006689605070278,  0.0018254650058225, -0.0063100531697273 ]
  - [  -0.0005109945777804,  0.0016592107713223, -0.0065181376412511 ]
  - [  -0.0005109244957566,  0.0019930806010962, -0.0061035277321935 ]
  - [  -0.0005501937121153,  0.0018262136727571, -0.0063095316290855 ]
  - [  -0.0005113939987496,  0.0019923134241253, -0.0065190843306482 ]
  - [  -0.0005128942430019,  0.0016599139198661, -0.0061062104068696 ]
  - [  -0.0005489848554134,  0.0018256651237607, -0.0063130380585790 ]
  - [  -0.0011125656310469,  0.0019821897149086,  0.0058754449710250 ]
  - [  -0.0007322040619329,  0.0019821613095701,  0.0058047147467732 ]
  - [  -0.0007303894963115,  0.0019820556044579,  0.0059488564729691 ]
  - [  -0.0007844393840060,  0.0019824369810522,  0.0058756247162819 ]
  - [  -0.0008266868535429,  0.0019623478874564,  0.0058971205726266 ]
  - [  -0.0008274597930722,  0.0020013004541397,  0.0058547006919980 ]
  - [  -0.0007834450807422,  0.0019819047302008,  0.0058759180828929 ]
  - [  -0.0008280404144898,  0.0020018350332975,  0.0058971289545298 ]
  - [  -0.0008276260923594,  0.0019630542956293,  0.0058548310771585 ]
  - [  -0.0007259555277415, -0.0002467767044436,  0.0013902476057410 ]
  - [  -0.0003444458707236, -0.0002463410783093,  0.0014616610715166 ]
  - [  -0.0003446817281656, -0.0002467187005095,  0.0013175866333768 ]
  - [  -0.0003967748489231, -0.0002462467236910,  0.0013893195427954 ]
  - [  -0.0004403612692840, -0.0002655502175912,  0.0013696162495762 ]
  - [  -0.0004402765480336, -0.0002272612764500,  0.0014098117826506 ]
  - [  -0.0003969608515035, -0.0002461943076923,  0.0013890303671360 ]
  - [  -0.0004395708965603, -0.0002285093651153,  0.0013690891209990 ]
  - [  -0.0004403069324326, -0.0002656106662471,  0.0014095397200435 ]
  - [  -0.0005355123430490, -0.0016735922545195,  0.0103592909872532 ]
  - [  -0.0005666734650731, -0.0016903728246689,  0.0103590553626418 ]
  - [  -0.0005667544901371, -0.0016579758375883,  0.0103594344109297 ]
  - [  -0.0005600228905678, -0.0016743447631598,  0.0103598423302174 ]
  - [  -0.0005553234368563, -0.0016738884150982,  0.0103591550141573 ]
  - [  -0.0005541313439608, -0.0016747694462538,  0.0103598255664110 ]
  - [  -0.0005368757992983, -0.0016740467399359,  0.0103595256805420 ]
  - [  -0.0005665952339768, -0.0016583278775215,  0.0103596113622189 ]
  - [  -0.0005675340071321, -0.0016904026269913,  0.0103598181158304 ]
  - [   0.0030345767736435, -0.0031595313921571, -0.0152928894385695 ]
  - [   0.0030943106394261,  0.0012441044673324, -0.0152762504294515 ]
  - [   0.0010152333416045, -0.0009968220256269, -0.0152844460681081 ]
  - [   0.0011282803025097, -0.0009975619614124, -0.0152827072888613 ]
  - [   0.0011284089414403, -0.0009983370546252, -0.0152848362922668 ]
  - [   0.0011676538269967, -0.0009975467110053, -0.0152832698076963 ]
  - [   0.0030328438151628,  0.0011581442086026, -0.0152909755706787 ]
  - [   0.0030910628847778, -0.0032341221813112, -0.0152767971158028 ]
  - [   0.0010160616366193, -0.0009992863051593, -0.0152839841321111 ]
  - [   0.0012119414750487, -0.0036510338541120,  0.0105509869754314 ]
  - [   0.0012125513749197, -0.0033179474994540,  0.0108446823433042 ]
  - [   0.0011600048746914, -0.0034843790344894,  0.0106976926326752 ]
  - [   0.0011867058929056, -0.0034845499321818,  0.0107127223163843 ]
  - [   0.0011868281289935, -0.0034843024332076,  0.0106837637722492 ]
  - [   0.0011955184163526, -0.0034842099994421,  0.0106988297775388 ]
  - [   0.0012126391520724, -0.0033164997585118,  0.0105484649538994 ]
  - [   0.0012112222611904, -0.0036509034689516,  0.0108460001647472 ]
  - [   0.0011599194258451, -0.0034832991659641,  0.0106974449008703 ]
  - [  -0.0010660906555131,  0.0012061009183526, -0.0055742030963302 ]
  - [  -0.0000694796181051,  0.0013676397502422, -0.0053822621703148 ]
  - [  -0.0000685650520609,  0.0010419022291899, -0.0057649463415146 ]
  - [  -0.0004352080868557,  0.0012052003294230, -0.0055713867768645 ]
  - [  -0.0004730299406219,  0.0012048007920384, -0.0055826585739851 ]
  - [  -0.0004746960767079,  0.0012052189558744, -0.0055630914866924 ]
  - [  -0.0010656770318747,  0.0012033227831125, -0.0055712182074785 ]
  - [  -0.0000693779438734,  0.0010420866310596, -0.0053817774169147 ]
  - [  -0.0000688033178449,  0.0013669915497303, -0.0057640750892460 ]
  - [   0.0004010184202343,  0.0008784354431555,  0.0048100347630680 ]
  - [   0.0004010022094008,  0.0008783035445958,  0.0048096049576998 ]
  - [   0.0003533775452524,  0.0008788906852715,  0.0048099630512297 ]
  - [   0.0003804595326073,  0.0008938275859691,  0.0048099895939231 ]
  - [   0.0003797652316280,  0.0008625499904156,  0.0048095984384418 ]
  - [   0.0003938087611459,  0.0008779112249613,  0.0048094824887812 ]
  - [   0.0003809594199993,  0.0008611752418801,  0.0048100966960192 ]
  - [   0.0003811214119196,  0.0008923076093197,  0.0048101330175996 ]
  - [   0.0003926642239094,  0.0008773114532232,  0.0048101563006639 ]
- atom:    1
  displacement:
    [  -0.0100000000000000,  0.0000000000000000,  0.0000000000000000 ]
  forces:
  - [   0.0151345711201429, -0.0013660795520991, -0.0062803626060486 ]
  - [   0.0010173860937357, -0.0013668620958924, -0.0062984232790768 ]
  - [   0.0011299063917249, -0.0013643746497110, -0.0063090859912336 ]
  - [   0.0022659385576844, -0.0013686993625015, -0.0063045532442629 ]
  - [   0.0018714055186138, -0.0015329795423895, -0.0063040237873793 ]
  - [   0.0018660763744265, -0.0011935649672523, -0.0063046654686332 ]
  - [   0.0022666603326797, -0.0013626584550366, -0.0063043124973774 ]
  - [   0.0018719874788076, -0.0011991278734058, -0.0063029723241925 ]
  - [   0.0018661299254745, -0.0015392721397802, -0.0063041732646525 ]
  - [  -0.0017046609427780,  0.0004830895341001,  0.0064896875992417 ]
  - [  -0.0016351044178009,  0.0004911595024168,  0.0088116098195314 ]
  - [  -0.0007027985993773,  0.0004871333949268,  0.0077016036957502 ]
  - [  -0.0008616871200502,  0.0006452637026086,  0.0075004221871495 ]
  - [  -0.0008624583133496,  0.0003263152902946,  0.0079049430787563 ]
  - [  -0.0008252527331933,  0.0004872151184827,  0.0077023310586810 ]
  - [  -0.0008605881012045,  0.0003284474369138,  0.0075018326751888 ]
  - [  -0.0008627665229142,  0.0006465438054875,  0.0079041793942451 ]
  - [  -0.0008251154213212,  0.0004856862360612,  0.0077020879834890 ]
  - [   0.0002726395032369,  0.0008167244377546,  0.0021150389220566 ]
  - [  -0.0006899148575030,  0.0006647197296843,  0.0022970701102167 ]
  - [  -0.0006942261825316,  0.0009850573260337,  0.0019281195709482 ]
  - [  -0.0003402429865673,  0.0008245061035268,  0.0021133245900273 ]
  - [  -0.0002946638269350,  0.0008243008051068,  0.0021048937924206 ]
  - [  -0.0002947853645310,  0.0008243295014836,  0.0021224485244602 ]
  - [   0.0002710620756261,  0.0008304816437885,  0.0021134077105671 ]
  - [  -0.0006924156332389,  0.0009848611662164,  0.0022980170324445 ]
  - [  -0.0006975242868066,  0.0006621436914429,  0.0019261308480054 ]
  - [  -0.0008386226836592,  0.0007351264939643, -0.0096259210258722 ]
  - [  -0.0008399657672271,  0.0004004036309198, -0.0093282368034124 ]
  - [  -0.0007852767594159,  0.0005670549580827, -0.0094761541113257 ]
  - [  -0.0008130919304676,  0.0005674546118826, -0.0094608617946506 ]
  - [  -0.0008136396063492,  0.0005674652056769, -0.0094934888184071 ]