# Thermal properties / unit cell (natom)

unit:
  temperature:   K
  free_energy:   kJ/mol
  entropy:       J/K/mol
  heat_capacity: J/K/mol

natom: 18   
cutoff_frequency: 0.00000
num_modes: 142830
num_integrated_modes: 137363

zero_point_energy:      65.8331014

thermal_properties:
- temperature:         0.0000000
  free_energy:        65.8331014
  entropy:             0.0000000
  heat_capacity:       0.0000000
  energy:             65.8331014

- temperature:        10.0000000
  free_energy:        65.8220064
  entropy:             3.7454430
  heat_capacity:       9.1112142
  energy:             65.8594608

- temperature:        20.0000000
  free_energy:        65.7210590
  entropy:            17.9157096
  heat_capacity:      35.7860745
  energy:             66.0793732

- temperature:        30.0000000
  free_energy:        65.4469518
  entropy:            37.2617281
  heat_capacity:      60.3660320
  energy:             66.5648037

- temperature:        40.0000000
  free_energy:        64.9731468
  entropy:            57.5283151
  heat_capacity:      81.2992747
  energy:             67.2742794

- temperature:        50.0000000
  free_energy:        64.2960577
  entropy:            77.9171232
  heat_capacity:     102.4622048
  energy:             68.1919139

- temperature:        60.0000000
  free_energy:        63.4138536
  entropy:            98.5878457
  heat_capacity:     125.2447835
  energy:             69.3291243

- temperature:        70.0000000
  free_energy:        62.3228623
  entropy:           119.6839805
  heat_capacity:     149.1909269
  energy:             70.7007410

- temperature:        80.0000000
  free_energy:        61.0188211
  entropy:           141.1823091
  heat_capacity:     173.2807374
  energy:             72.3134058

- temperature:        90.0000000
  free_energy:        59.4983184
  entropy:           162.9487186
  heat_capacity:     196.5853525
  energy:             74.1637030

- temperature:       100.0000000
  free_energy:        57.7595374
  entropy:           184.8081342
  heat_capacity:     218.4712982
  energy:             76.2403509

- temperature:       110.0000000
  free_energy:        55.8024197
  entropy:           206.5892354
  heat_capacity:     238.5965494
  energy:             78.5272356

- temperature:       120.0000000
  free_energy:        53.6285051
  entropy:           228.1457120
  heat_capacity:     256.8391183
  energy:             81.0059905

- temperature:       130.0000000
  free_energy:        51.2406401
  entropy:           249.3628123
  heat_capacity:     273.2207220
  energy:             83.6578057

- temperature:       140.0000000
  free_energy:        48.6426638
  entropy:           270.1563102
  heat_capacity:     287.8463171
  energy:             86.4645472

- temperature:       150.0000000
  free_energy:        45.8391214
  entropy:           290.4682913
  heat_capacity:     300.8622542
  energy:             89.4093651

- temperature:       160.0000000
  free_energy:        42.8350270
  entropy:           310.2621076
  heat_capacity:     312.4297110
  energy:             92.4769642

- temperature:       170.0000000
  free_energy:        39.6356750
  entropy:           329.5175974
  heat_capacity:     322.7090220
  energy:             95.6536666

- temperature:       180.0000000
  free_energy:        36.2464963
  entropy:           348.2269963
  heat_capacity:     331.8511909
  energy:             98.9273557

- temperature:       190.0000000
  free_energy:        32.6729517
  entropy:           366.3916250
  heat_capacity:     339.9938849
  energy:            102.2873604

- temperature:       200.0000000
  free_energy:        28.9204542
  entropy:           384.0192959
  heat_capacity:     347.2600912
  energy:            105.7243134

- temperature:       210.0000000
  free_energy:        24.9943149
  entropy:           401.1223277
  heat_capacity:     353.7582745
  energy:            109.2300037

- temperature:       220.0000000
  free_energy:        20.8997055
  entropy:           417.7160494
  heat_capacity:     359.5833139
  energy:            112.7972364

- temperature:       230.0000000
  free_energy:        16.6416343
  entropy:           433.8176885
  heat_capacity:     364.8177915
  energy:            116.4197027

- temperature:       240.0000000
  free_energy:        12.2249311
  entropy:           449.4455526
  heat_capacity:     369.5333841
  energy:            120.0918637

- temperature:       250.0000000
  free_energy:         7.6542399
  entropy:           464.6184355
  heat_capacity:     373.7922240
  energy:            123.8088487

- temperature:       260.0000000
  free_energy:         2.9340161
  entropy:           479.3551917
  heat_capacity:     377.6481597
  energy:            127.5663659

- temperature:       270.0000000
  free_energy:        -1.9314723
  entropy:           493.6744355
  heat_capacity:     381.1478880
  energy:            131.3606253

- temperature:       280.0000000
  free_energy:        -6.9381415
  entropy:           507.5943343
  heat_capacity:     384.3319505
  energy:            135.1882721

- temperature:       290.0000000
  free_energy:       -12.0820865
  entropy:           521.1324711
  heat_capacity:     387.2355997
  energy:            139.0463301

- temperature:       300.0000000
  free_energy:       -17.3595749
  entropy:           534.3057567
  heat_capacity:     389.8895454
  energy:            142.9321522

- temperature:       310.0000000
  free_energy:       -22.7670396
  entropy:           547.1303804
  heat_capacity:     392.3205950
  energy:            146.8433784

- temperature:       320.0000000
  free_energy:       -28.3010718
  entropy:           559.6217856
  heat_capacity:     394.5521998
  energy:            150.7778996

- temperature:       330.0000000
  free_energy:       -33.9584136
  entropy:           571.7946665
  heat_capacity:     396.6049219
  energy:            154.7338264

- temperature:       340.0000000
  free_energy:       -39.7359500
  entropy:           583.6629771
  heat_capacity:     398.4968316
  energy:            158.7094622

- temperature:       350.0000000
  free_energy:       -45.6307021
  entropy:           595.2399494
  heat_capacity:     400.2438465
  energy:            162.7032802

- temperature:       360.0000000
  free_energy:       -51.6398197
  entropy:           606.5381191
  heat_capacity:     401.8600205
  energy:            166.7139032

- temperature:       370.0000000
  free_energy:       -57.7605748
  entropy:           617.5693537
  heat_capacity:     403.3577909
  energy:            170.7400861

- temperature:       380.0000000
  free_energy:       -63.9903545
  entropy:           628.3448835
  heat_capacity:     404.7481894
  energy:            174.7807012

- temperature:       390.0000000
  free_energy:       -70.3266556
  entropy:           638.8753342
  heat_capacity:     406.0410230
  energy:            178.8347248

- temperature:       400.0000000
  free_energy:       -76.7670778
  entropy:           649.1707588
  heat_capacity:     407.2450293
  energy:            182.9012257

- temperature:       410.0000000
  free_energy:       -83.3093191
  entropy:           659.2406694
  heat_capacity:     408.3680100
  energy:            186.9793554

- temperature:       420.0000000
  free_energy:       -89.9511696
  entropy:           669.0940684
  heat_capacity:     409.4169456
  energy:            191.0683391

- temperature:       430.0000000
  free_energy:       -96.6905072
  entropy:           678.7394782
  heat_capacity:     410.3980951
  energy:            195.1674684

- temperature:       440.0000000
  free_energy:      -103.5252928
  entropy:           688.1849698
  heat_capacity:     411.3170816
  energy:            199.2760939

- temperature:       450.0000000
  free_energy:      -110.4535657
  entropy:           697.4381900
  heat_capacity:     412.1789668
  energy:            203.3936198

- temperature:       460.0000000
  free_energy:      -117.4734399
  entropy:           706.5063871
  heat_capacity:     412.9883159
  energy:            207.5194982

- temperature:       470.0000000
  free_energy:      -124.5830997
  entropy:           715.3964350
  heat_capacity:     413.7492536
  energy:            211.6532247

- temperature:       480.0000000
  free_energy:      -131.7807965
  entropy:           724.1148560
  heat_capacity:     414.4655137
  energy:            215.7943344

- temperature:       490.0000000
  free_energy:      -139.0648454
  entropy:           732.6678425
  heat_capacity:     415.1404815
  energy:            219.9423974

- temperature:       500.0000000
  free_energy:      -146.4336216
  entropy:           741.0612764
  heat_capacity:     415.7772323
  energy:            224.0970166

- temperature:       510.0000000
  free_energy:      -153.8855577
  entropy:           749.3007486
  heat_capacity:     416.3785637
  energy:            228.2578240

- temperature:       520.0000000
  free_energy:      -161.4191411
  entropy:           757.3915759
  heat_capacity:     416.9470250
  energy:            232.4244784

- temperature:       530.0000000
  free_energy:      -169.0329107
  entropy:           765.3388178
  heat_capacity:     417.4849430
  energy:            236.5966627

- temperature:       540.0000000
  free_energy:      -176.7254549
  entropy:           773.1472915
  heat_capacity:     417.9944443
  energy:            240.7740825

- temperature:       550.0000000
  free_energy:      -184.4954093
  entropy:           780.8215867
  heat_capacity:     418.4774759
  energy:            244.9564634

- temperature:       560.0000000
  free_energy:      -192.3414540
  entropy:           788.3660781
  heat_capacity:     418.9358221
  energy:            249.1435498

- temperature:       570.0000000
  free_energy:      -200.2623121
  entropy:           795.7849388
  heat_capacity:     419.3711212
  energy:            253.3351030

- temperature:       580.0000000
  free_energy:      -208.2567473
  entropy:           803.0821512
  heat_capacity:     419.7848790
  energy:            257.5309004

- temperature:       590.0000000
  free_energy:      -216.3235623
  entropy:           810.2615182
  heat_capacity:     420.1784813
  energy:            261.7307334

- temperature:       600.0000000
  free_energy:      -224.4615970
  entropy:           817.3266735
  heat_capacity:     420.5532054
  energy:            265.9344071

- temperature:       610.0000000
  free_energy:      -232.6697267
  entropy:           824.2810905
  heat_capacity:     420.9102297
  energy:            270.1417386

- temperature:       620.0000000
  free_energy:      -240.9468607
  entropy:           831.1280921
  heat_capacity:     421.2506429
  energy:            274.3525563

- temperature:       630.0000000
  free_energy:      -249.2919411
  entropy:           837.8708579
  heat_capacity:     421.5754520
  energy:            278.5666994

- temperature:       640.0000000
  free_energy:      -257.7039406
  entropy:           844.5124330
  heat_capacity:     421.8855892
  energy:            282.7840165

- temperature:       650.0000000
  free_energy:      -266.1818622
  entropy:           851.0557344
  heat_capacity:     422.1819188
  energy:            287.0043652

- temperature:       660.0000000
  free_energy:      -274.7247371
  entropy:           857.5035584
  heat_capacity:     422.4652428
  energy:            291.2276115

- temperature:       670.0000000
  free_energy:      -283.3316240
  entropy:           863.8585869
  heat_capacity:     422.7363062
  energy:            295.4536292

- temperature:       680.0000000
  free_energy:      -292.0016081
  entropy:           870.1233929
  heat_capacity:     422.9958018
  energy:            299.6822991

- temperature:       690.0000000
  free_energy:      -300.7337994
  entropy:           876.3004467
  heat_capacity:     423.2443744
  energy:            303.9135088

- temperature:       700.0000000
  free_energy:      -309.5273324
  entropy:           882.3921208
  heat_capacity:     423.4826249
  energy:            308.1471522

- temperature:       710.0000000
  free_energy:      -318.3813648
  entropy:           888.4006952
  heat_capacity:     423.7111135
  energy:            312.3831288

- temperature:       720.0000000
  free_energy:      -327.2950766
  entropy:           894.3283615
  heat_capacity:     423.9303632
  energy:            316.6213436

- temperature:       730.0000000
  free_energy:      -336.2676694
  entropy:           900.1772277
  heat_capacity:     424.1408628
  energy:            320.8617069

- temperature:       740.0000000
  free_energy:      -345.2983653
  entropy:           905.9493224
  heat_capacity:     424.3430693
  energy:            325.1041333

- temperature:       750.0000000
  free_energy:      -354.3864064
  entropy:           911.6465980
  heat_capacity:     424.5374102
  energy:            329.3485420

- temperature:       760.0000000
  free_energy:      -363.5310541
  entropy:           917.2709351
  heat_capacity:     424.7242862
  energy:            333.5948566

- temperature:       770.0000000
  free_energy:      -372.7315881
  entropy:           922.8241457
  heat_capacity:     424.9040729
  energy:            337.8430041

- temperature:       780.0000000
  free_energy:      -381.9873058
  entropy:           928.3079761
  heat_capacity:     425.0771226
  energy:            342.0929156

- temperature:       790.0000000
  free_energy:      -391.2975219
  entropy:           933.7241104
  heat_capacity:     425.2437661
  energy:            346.3445252

- temperature:       800.0000000
  free_energy:      -400.6615678
  entropy:           939.0741729
  heat_capacity:     425.4043144
  energy:            350.5977706

- temperature:       810.0000000
  free_energy:      -410.0787904
  entropy:           944.3597316
  heat_capacity:     425.5590597
  energy:            354.8525922

- temperature:       820.0000000
  free_energy:      -419.5485524
  entropy:           949.5822997
  heat_capacity:     425.7082772
  energy:            359.1089334

- temperature:       830.0000000
  free_energy:      -429.0702313
  entropy:           954.7433391
  heat_capacity:     425.8522259
  energy:            363.3667402

- temperature:       840.0000000
  free_energy:      -438.6432188
  entropy:           959.8442619
  heat_capacity:     425.9911499
  energy:            367.6259611

- temperature:       850.0000000
  free_energy:      -448.2669207
  entropy:           964.8864328
  heat_capacity:     426.1252794
  energy:            371.8865472

- temperature:       860.0000000
  free_energy:      -457.9407560
  entropy:           969.8711715
  heat_capacity:     426.2548316
  energy:            376.1484515

- temperature:       870.0000000
  free_energy:      -467.6641569
  entropy:           974.7997542
  heat_capacity:     426.3800118
  energy:            380.4116292

- temperature:       880.0000000
  free_energy:      -477.4365681
  entropy:           979.6734157
  heat_capacity:     426.5010135
  energy:            384.6760378

- temperature:       890.0000000
  free_energy:      -487.2574462
  entropy:           984.4933510
  heat_capacity:     426.6180201
  energy:            388.9416362

- temperature:       900.0000000
  free_energy:      -497.1262599
  entropy:           989.2607170
  heat_capacity:     426.7312049
  energy:            393.2083854

- temperature:       910.0000000
  free_energy:      -507.0424890
  entropy:           993.9766342
  heat_capacity:     426.8407319
  energy:            397.4762481

- temperature:       920.0000000
  free_energy:      -517.0056247
  entropy:           998.6421881
  heat_capacity:     426.9467565
  energy:            401.7451884

- temperature:       930.0000000
  free_energy:      -527.0151684
  entropy:          1003.2584306
  heat_capacity:     427.0494260
  energy:            406.0151721

- temperature:       940.0000000
  free_energy:      -537.0706323
  entropy:          1007.8263814
  heat_capacity:     427.1488800
  energy:            410.2861662

- temperature:       950.0000000
  free_energy:      -547.1715384
  entropy:          1012.3470292
  heat_capacity:     427.2452508
  energy:            414.5581394

- temperature:       960.0000000
  free_energy:      -557.3174184
  entropy:          1016.8213331
  heat_capacity:     427.3386643
  energy:            418.8310614

- temperature:       970.0000000
  free_energy:      -567.5078137
  entropy:          1021.2502236
  heat_capacity:     427.4292398
  energy:            423.1049032

- temperature:       980.0000000
  free_energy:      -577.7422745
  entropy:          1025.6346037
  heat_capacity:     427.5170908
  energy:            427.3796371

- temperature:       990.0000000
  free_energy:      -588.0203603
  entropy:          1029.9753501
  heat_capacity:     427.6023251
  energy:            431.6552363

- temperature:      1000.0000000
  free_energy:      -598.3416389
  entropy:          1034.2733141
  heat_capacity:     427.6850454
  energy:            435.9316752
