# Thermal properties / unit cell (natom)

unit:
  temperature:   K
  free_energy:   kJ/mol
  entropy:       J/K/mol
  heat_capacity: J/K/mol

natom: 14   
cutoff_frequency: 0.00000
num_modes: 188370
num_integrated_modes: 188368

zero_point_energy:      55.4699588

thermal_properties:
- temperature:         0.0000000
  free_energy:        55.4699588
  entropy:             0.0000000
  heat_capacity:       0.0000000
  energy:             55.4699588

- temperature:        10.0000000
  free_energy:        55.4678606
  entropy:             0.8111977
  heat_capacity:       2.5967267
  energy:             55.4759725

- temperature:        20.0000000
  free_energy:        55.4350727
  entropy:             6.9400530
  heat_capacity:      19.1217174
  energy:             55.5738738

- temperature:        30.0000000
  free_energy:        55.3097205
  entropy:            18.7934645
  heat_capacity:      40.7249850
  energy:             55.8735245

- temperature:        40.0000000
  free_energy:        55.0505514
  entropy:            33.3115405
  heat_capacity:      60.9064784
  energy:             56.3830131

- temperature:        50.0000000
  free_energy:        54.6398058
  entropy:            48.9655556
  heat_capacity:      80.0154374
  energy:             57.0880836

- temperature:        60.0000000
  free_energy:        54.0692607
  entropy:            65.2230916
  heat_capacity:      98.8981488
  energy:             57.9826462

- temperature:        70.0000000
  free_energy:        53.3339932
  entropy:            81.8877791
  heat_capacity:     117.7922796
  energy:             59.0661377

- temperature:        80.0000000
  free_energy:        52.4305448
  entropy:            98.8404291
  heat_capacity:     136.4676087
  energy:             60.3377791

- temperature:        90.0000000
  free_energy:        51.3566119
  entropy:           115.9646960
  heat_capacity:     154.5280991
  energy:             61.7934346

- temperature:       100.0000000
  free_energy:        50.1110814
  entropy:           133.1400049
  heat_capacity:     171.6150439
  energy:             63.4250819

- temperature:       110.0000000
  free_energy:        48.6940268
  entropy:           150.2513359
  heat_capacity:     187.4876860
  energy:             65.2216737

- temperature:       120.0000000
  free_energy:        47.1066051
  entropy:           167.1981658
  heat_capacity:     202.0284199
  energy:             67.1703850

- temperature:       130.0000000
  free_energy:        45.3508864
  entropy:           183.8987789
  heat_capacity:     215.2169679
  energy:             69.2577276

- temperature:       140.0000000
  free_energy:        43.4296603
  entropy:           200.2907428
  heat_capacity:     227.0987611
  energy:             71.4703643

- temperature:       150.0000000
  free_energy:        41.3462516
  entropy:           216.3291596
  heat_capacity:     237.7579842
  energy:             73.7956256

- temperature:       160.0000000
  free_energy:        39.1043572
  entropy:           231.9839701
  heat_capacity:     247.2978961
  energy:             76.2217924

- temperature:       170.0000000
  free_energy:        36.7079122
  entropy:           247.2370869
  heat_capacity:     255.8277837
  energy:             78.7382170

- temperature:       180.0000000
  free_energy:        34.1609844
  entropy:           262.0797524
  heat_capacity:     263.4549769
  energy:             81.3353398

- temperature:       190.0000000
  free_energy:        31.4676916
  entropy:           276.5102807
  heat_capacity:     270.2803813
  energy:             84.0046449

- temperature:       200.0000000
  free_energy:        28.6321412
  entropy:           290.5322119
  heat_capacity:     276.3963056
  energy:             86.7385835

- temperature:       210.0000000
  free_energy:        25.6583853
  entropy:           304.1528494
  heat_capacity:     281.8857114
  energy:             89.5304836

- temperature:       220.0000000
  free_energy:        22.5503889
  entropy:           317.3821232
  heat_capacity:     286.8222965
  energy:             92.3744560

- temperature:       230.0000000
  free_energy:        19.3120085
  entropy:           330.2317209
  heat_capacity:     291.2710343
  energy:             95.2653043

- temperature:       240.0000000
  free_energy:        15.9469775
  entropy:           342.7144326
  heat_capacity:     295.2889305
  energy:             98.1984414

- temperature:       250.0000000
  free_energy:        12.4588981
  entropy:           354.8436623
  heat_capacity:     298.9258573
  energy:            101.1698137

- temperature:       260.0000000
  free_energy:         8.8512370
  entropy:           366.6330670
  heat_capacity:     302.2253819
  energy:            104.1758344

- temperature:       270.0000000
  free_energy:         5.1273240
  entropy:           378.0962962
  heat_capacity:     305.2255468
  energy:            107.2133240

- temperature:       280.0000000
  free_energy:         1.2903535
  entropy:           389.2468045
  heat_capacity:     307.9595796
  energy:            110.2794587

- temperature:       290.0000000
  free_energy:        -2.6566135
  entropy:           400.0977213
  heat_capacity:     310.4565274
  energy:            113.3717257

- temperature:       300.0000000
  free_energy:        -6.7106448
  entropy:           410.6617628
  heat_capacity:     312.7418133
  energy:            116.4878841

- temperature:       310.0000000
  free_energy:       -10.8689333
  entropy:           420.9511754
  heat_capacity:     314.8377233
  energy:            119.6259310

- temperature:       320.0000000
  free_energy:       -15.1287920
  entropy:           430.9777026
  heat_capacity:     316.7638267
  energy:            122.7840728

- temperature:       330.0000000
  free_energy:       -19.4876486
  entropy:           440.7525690
  heat_capacity:     318.5373399
  energy:            125.9606992

- temperature:       340.0000000
  free_energy:       -23.9430403
  entropy:           450.2864766
  heat_capacity:     320.1734390
  energy:            129.1543617

- temperature:       350.0000000
  free_energy:       -28.4926089
  entropy:           459.5896105
  heat_capacity:     321.6855293
  energy:            132.3637548

- temperature:       360.0000000
  free_energy:       -33.1340956
  entropy:           468.6716507
  heat_capacity:     323.0854761
  energy:            135.5876987

- temperature:       370.0000000
  free_energy:       -37.8653356
  entropy:           477.5417874
  heat_capacity:     324.3838039
  energy:            138.8251257

- temperature:       380.0000000
  free_energy:       -42.6842541
  entropy:           486.2087405
  heat_capacity:     325.5898675
  energy:            142.0750673

- temperature:       390.0000000
  free_energy:       -47.5888608
  entropy:           494.6807799
  heat_capacity:     326.7119989
  energy:            145.3366434

- temperature:       400.0000000
  free_energy:       -52.5772462
  entropy:           502.9657464
  heat_capacity:     327.7576349
  energy:            148.6090524

- temperature:       410.0000000
  free_energy:       -57.6475770
  entropy:           511.0710739
  heat_capacity:     328.7334262
  energy:            151.8915633

- temperature:       420.0000000
  free_energy:       -62.7980924
  entropy:           519.0038105
  heat_capacity:     329.6453328
  energy:            155.1835080

- temperature:       430.0000000
  free_energy:       -68.0271002
  entropy:           526.7706398
  heat_capacity:     330.4987057
  energy:            158.4842749

- temperature:       440.0000000
  free_energy:       -73.3329733
  entropy:           534.3779010
  heat_capacity:     331.2983587
  energy:            161.7933031

- temperature:       450.0000000
  free_energy:       -78.7141464
  entropy:           541.8316087
  heat_capacity:     332.0486302
  energy:            165.1100775

- temperature:       460.0000000
  free_energy:       -84.1691127
  entropy:           549.1374716
  heat_capacity:     332.7534372
  energy:            168.4341242

- temperature:       470.0000000
  free_energy:       -89.6964211
  entropy:           556.3009100
  heat_capacity:     333.4163226
  energy:            171.7650066

- temperature:       480.0000000
  free_energy:       -95.2946733
  entropy:           563.3270730
  heat_capacity:     334.0404966
  energy:            175.1023217

- temperature:       490.0000000
  free_energy:      -100.9625213
  entropy:           570.2208542
  heat_capacity:     334.6288726
  energy:            178.4456972

- temperature:       500.0000000
  free_energy:      -106.6986647
  entropy:           576.9869067
  heat_capacity:     335.1840991
  energy:            181.7947887

- temperature:       510.0000000
  free_energy:      -112.5018485
  entropy:           583.6296573
  heat_capacity:     335.7085877
  energy:            185.1492768

- temperature:       520.0000000
  free_energy:      -118.3708609
  entropy:           590.1533196
  heat_capacity:     336.2045373
  energy:            188.5088653

- temperature:       530.0000000
  free_energy:      -124.3045313
  entropy:           596.5619064
  heat_capacity:     336.6739567
  energy:            191.8732791

- temperature:       540.0000000
  free_energy:      -130.3017282
  entropy:           602.8592414
  heat_capacity:     337.1186827
  energy:            195.2422621

- temperature:       550.0000000
  free_energy:      -136.3613575
  entropy:           609.0489700
  heat_capacity:     337.5403982
  energy:            198.6155761

- temperature:       560.0000000
  free_energy:      -142.4823605
  entropy:           615.1345698
  heat_capacity:     337.9406465
  energy:            201.9929986

- temperature:       570.0000000
  free_energy:      -148.6637128
  entropy:           621.1193597
  heat_capacity:     338.3208451
  energy:            205.3743222

- temperature:       580.0000000
  free_energy:      -154.9044223
  entropy:           627.0065091
  heat_capacity:     338.6822979
  energy:            208.7593530

- temperature:       590.0000000
  free_energy:      -161.2035277
  entropy:           632.7990463
  heat_capacity:     339.0262052
  energy:            212.1479097

- temperature:       600.0000000
  free_energy:      -167.5600975
  entropy:           638.4998663
  heat_capacity:     339.3536740
  energy:            215.5398223

- temperature:       610.0000000
  free_energy:      -173.9732285
  entropy:           644.1117381
  heat_capacity:     339.6657261
  energy:            218.9349318

- temperature:       620.0000000
  free_energy:      -180.4420446
  entropy:           649.6373116
  heat_capacity:     339.9633058
  energy:            222.3330886

- temperature:       630.0000000
  free_energy:      -186.9656956
  entropy:           655.0791240
  heat_capacity:     340.2472869
  energy:            225.7341525

- temperature:       640.0000000
  free_energy:      -193.5433560
  entropy:           660.4396058
  heat_capacity:     340.5184787
  energy:            229.1379917

- temperature:       650.0000000
  free_energy:      -200.1742243
  entropy:           665.7210867
  heat_capacity:     340.7776317
  energy:            232.5444820

- temperature:       660.0000000
  free_energy:      -206.8575218
  entropy:           670.9258006
  heat_capacity:     341.0254428
  energy:            235.9535065

- temperature:       670.0000000
  free_energy:      -213.5924916
  entropy:           676.0558908
  heat_capacity:     341.2625593
  energy:            239.3649552

- temperature:       680.0000000
  free_energy:      -220.3783978
  entropy:           681.1134145
  heat_capacity:     341.4895834
  energy:            242.7787241

- temperature:       690.0000000
  free_energy:      -227.2145246
  entropy:           686.1003474
  heat_capacity:     341.7070759
  energy:            246.1947151

- temperature:       700.0000000
  free_energy:      -234.1001758
  entropy:           691.0185876
  heat_capacity:     341.9155593
  energy:            249.6128356

- temperature:       710.0000000
  free_energy:      -241.0346735
  entropy:           695.8699597
  heat_capacity:     342.1155212
  energy:            253.0329979

- temperature:       720.0000000
  free_energy:      -248.0173579
  entropy:           700.6562181
  heat_capacity:     342.3074168
  energy:            256.4551191

- temperature:       730.0000000
  free_energy:      -255.0475864
  entropy:           705.3790509
  heat_capacity:     342.4916715
  energy:            259.8791208

- temperature:       740.0000000
  free_energy:      -262.1247329
  entropy:           710.0400829
  heat_capacity:     342.6686832
  energy:            263.3049284

- temperature:       750.0000000
  free_energy:      -269.2481873
  entropy:           714.6408784
  heat_capacity:     342.8388243
  energy:            266.7324715

- temperature:       760.0000000
  free_energy:      -276.4173547
  entropy:           719.1829446
  heat_capacity:     343.0024438
  energy:            270.1616832

- temperature:       770.0000000
  free_energy:      -283.6316553
  entropy:           723.6677338
  heat_capacity:     343.1598691
  energy:            273.5924998

- temperature:       780.0000000
  free_energy:      -290.8905232
  entropy:           728.0966463
  heat_capacity:     343.3114070
  energy:            277.0248609

- temperature:       790.0000000
  free_energy:      -298.1934065
  entropy:           732.4710325
  heat_capacity:     343.4573462
  energy:            280.4587092

- temperature:       800.0000000
  free_energy:      -305.5397664
  entropy:           736.7921956
  heat_capacity:     343.5979575
  energy:            283.8939901

- temperature:       810.0000000
  free_energy:      -312.9290772
  entropy:           741.0613934
  heat_capacity:     343.7334959
  energy:            287.3306515

- temperature:       820.0000000
  free_energy:      -320.3608251
  entropy:           745.2798403
  heat_capacity:     343.8642013
  energy:            290.7686439

- temperature:       830.0000000
  free_energy:      -327.8345087
  entropy:           749.4487095
  heat_capacity:     343.9902998
  energy:            294.2079202

- temperature:       840.0000000
  free_energy:      -335.3496378
  entropy:           753.5691346
  heat_capacity:     344.1120042
  energy:            297.6484352

- temperature:       850.0000000
  free_energy:      -342.9057336
  entropy:           757.6422116
  heat_capacity:     344.2295155
  energy:            301.0901463

- temperature:       860.0000000
  free_energy:      -350.5023278
  entropy:           761.6690000
  heat_capacity:     344.3430232
  energy:            304.5330122

- temperature:       870.0000000
  free_energy:      -358.1389627
  entropy:           765.6505249
  heat_capacity:     344.4527065
  energy:            307.9769940

- temperature:       880.0000000
  free_energy:      -365.8151907
  entropy:           769.5877783
  heat_capacity:     344.5587343
  energy:            311.4220542

- temperature:       890.0000000
  free_energy:      -373.5305739
  entropy:           773.4817201
  heat_capacity:     344.6612668
  energy:            314.8681570

- temperature:       900.0000000
  free_energy:      -381.2846838
  entropy:           777.3332802
  heat_capacity:     344.7604553
  energy:            318.3152683

- temperature:       910.0000000
  free_energy:      -389.0771012
  entropy:           781.1433590
  heat_capacity:     344.8564430
  energy:            321.7633555

- temperature:       920.0000000
  free_energy:      -396.9074157
  entropy:           784.9128290
  heat_capacity:     344.9493657
  energy:            325.2123870

- temperature:       930.0000000
  free_energy:      -404.7752253
  entropy:           788.6425358
  heat_capacity:     345.0393520
  energy:            328.6623330

- temperature:       940.0000000
  free_energy:      -412.6801366
  entropy:           792.3332992
  heat_capacity:     345.1265238
  energy:            332.1131647

- temperature:       950.0000000
  free_energy:      -420.6217641
  entropy:           795.9859143
  heat_capacity:     345.2109970
  energy:            335.5648545

- temperature:       960.0000000
  free_energy:      -428.5997303
  entropy:           799.6011523
  heat_capacity:     345.2928813
  energy:            339.0173760

- temperature:       970.0000000
  free_energy:      -436.6136651
  entropy:           803.1797617
  heat_capacity:     345.3722810
  energy:            342.4707038

- temperature:       980.0000000
  free_energy:      -444.6632058
  entropy:           806.7224688
  heat_capacity:     345.4492955
  energy:            345.9248136

- temperature:       990.0000000
  free_energy:      -452.7479971
  entropy:           810.2299790
  heat_capacity:     345.5240189
  energy:            349.3796821

- temperature:      1000.0000000
  free_energy:      -460.8676904
  entropy:           813.7029770
  heat_capacity:     345.5965409
  energy:            352.8352867
