# Thermal properties / unit cell (natom)

unit:
  temperature:   K
  free_energy:   kJ/mol
  entropy:       J/K/mol
  heat_capacity: J/K/mol

natom: 12   
cutoff_frequency: 0.00000
num_modes: 233928
num_integrated_modes: 223558

zero_point_energy:      43.2822448

thermal_properties:
- temperature:         0.0000000
  free_energy:        43.2822448
  entropy:             0.0000000
  heat_capacity:       0.0000000
  energy:             43.2822448

- temperature:        10.0000000
  free_energy:        43.2779425
  entropy:             1.3845258
  heat_capacity:       2.9908184
  energy:             43.2917877

- temperature:        20.0000000
  free_energy:        43.2437375
  entropy:             5.9825169
  heat_capacity:      12.2725136
  energy:             43.3633879

- temperature:        30.0000000
  free_energy:        43.1486833
  entropy:            13.4550678
  heat_capacity:      26.0904926
  energy:             43.5523354

- temperature:        40.0000000
  free_energy:        42.9671893
  entropy:            23.1656563
  heat_capacity:      42.5242266
  energy:             43.8938155

- temperature:        50.0000000
  free_energy:        42.6797868
  entropy:            34.5559777
  heat_capacity:      60.3984034
  energy:             44.4075857

- temperature:        60.0000000
  free_energy:        42.2718997
  entropy:            47.1998470
  heat_capacity:      78.9062508
  energy:             45.1038906

- temperature:        70.0000000
  free_energy:        41.7327670
  entropy:            60.7520852
  heat_capacity:      97.3283010
  energy:             45.9854130

- temperature:        80.0000000
  free_energy:        41.0548235
  entropy:            74.9160713
  heat_capacity:     115.0523326
  energy:             47.0481092

- temperature:        90.0000000
  free_energy:        40.2332581
  entropy:            89.4377947
  heat_capacity:     131.6428701
  energy:             48.2826596

- temperature:       100.0000000
  free_energy:        39.2655786
  entropy:           104.1077237
  heat_capacity:     146.8539585
  energy:             49.6763510

- temperature:       110.0000000
  free_energy:        38.1511650
  entropy:           118.7605875
  heat_capacity:     160.5958937
  energy:             51.2148297

- temperature:       120.0000000
  free_energy:        36.8908438
  entropy:           133.2715277
  heat_capacity:     172.8874300
  energy:             52.8834271

- temperature:       130.0000000
  free_energy:        35.4865123
  entropy:           147.5500612
  heat_capacity:     183.8126125
  energy:             54.6680202

- temperature:       140.0000000
  free_energy:        33.9408287
  entropy:           161.5334693
  heat_capacity:     193.4886733
  energy:             56.5555144

- temperature:       150.0000000
  free_energy:        32.2569655
  entropy:           175.1806351
  heat_capacity:     202.0448046
  energy:             58.5340607

- temperature:       160.0000000
  free_energy:        30.4384207
  entropy:           188.4667841
  heat_capacity:     209.6093649
  energy:             60.5931061

- temperature:       170.0000000
  free_energy:        28.4888764
  entropy:           201.3792320
  heat_capacity:     216.3028955
  energy:             62.7233459

- temperature:       180.0000000
  free_energy:        26.4120955
  entropy:           213.9140631
  heat_capacity:     222.2348441
  energy:             64.9166268

- temperature:       190.0000000
  free_energy:        24.2118466
  entropy:           226.0735957
  heat_capacity:     227.5025115
  energy:             67.1658298

- temperature:       200.0000000
  free_energy:        21.8918527
  entropy:           237.8644791
  heat_capacity:     232.1912472
  energy:             69.4647485

- temperature:       210.0000000
  free_energy:        19.4557542
  entropy:           249.2962827
  heat_capacity:     236.3752880
  energy:             71.8079736

- temperature:       220.0000000
  free_energy:        16.9070859
  entropy:           260.3804598
  heat_capacity:     240.1188747
  energy:             74.1907871

- temperature:       230.0000000
  free_energy:        14.2492619
  entropy:           271.1295941
  heat_capacity:     243.4774418
  energy:             76.6090685

- temperature:       240.0000000
  free_energy:        11.4855670
  entropy:           281.5568564
  heat_capacity:     246.4987660
  energy:             79.0592125

- temperature:       250.0000000
  free_energy:         8.6191531
  entropy:           291.6756180
  heat_capacity:     249.2240213
  energy:             81.5380576

- temperature:       260.0000000
  free_energy:         5.6530386
  entropy:           301.4991783
  heat_capacity:     251.6887179
  energy:             84.0428249

- temperature:       270.0000000
  free_energy:         2.5901100
  entropy:           311.0405780
  heat_capacity:     253.9235217
  energy:             86.5710661

- temperature:       280.0000000
  free_energy:        -0.5668747
  entropy:           320.3124734
  heat_capacity:     255.9549618
  energy:             89.1206179

- temperature:       290.0000000
  free_energy:        -3.8152818
  entropy:           329.3270560
  heat_capacity:     257.8060346
  energy:             91.6895644

- temperature:       300.0000000
  free_energy:        -7.1525971
  entropy:           338.0960044
  heat_capacity:     259.4967193
  energy:             94.2762042

- temperature:       310.0000000
  free_energy:       -10.5764203
  entropy:           346.6304604
  heat_capacity:     261.0444147
  energy:             96.8790224

- temperature:       320.0000000
  free_energy:       -14.0844600
  entropy:           354.9410212
  heat_capacity:     262.4643097
  energy:             99.4966667

- temperature:       330.0000000
  free_energy:       -17.6745280
  entropy:           363.0377427
  heat_capacity:     263.7696967
  energy:            102.1279271

- temperature:       340.0000000
  free_energy:       -21.3445339
  entropy:           370.9301527
  heat_capacity:     264.9722381
  energy:            104.7717180

- temperature:       350.0000000
  free_energy:       -25.0924801
  entropy:           378.6272671
  heat_capacity:     266.0821913
  energy:            107.4270634

- temperature:       360.0000000
  free_energy:       -28.9164567
  entropy:           386.1376117
  heat_capacity:     267.1086005
  energy:            110.0930835

- temperature:       370.0000000
  free_energy:       -32.8146367
  entropy:           393.4692442
  heat_capacity:     268.0594598
  energy:            112.7689836

- temperature:       380.0000000
  free_energy:       -36.7852713
  entropy:           400.6297786
  heat_capacity:     268.9418519
  energy:            115.4540445

- temperature:       390.0000000
  free_energy:       -40.8266860
  entropy:           407.6264089
  heat_capacity:     269.7620670
  energy:            118.1476135

- temperature:       400.0000000
  free_energy:       -44.9372759
  entropy:           414.4659330
  heat_capacity:     270.5257040
  energy:            120.8490973

- temperature:       410.0000000
  free_energy:       -49.1155024
  entropy:           421.1547758
  heat_capacity:     271.2377577
  energy:            123.5579557

- temperature:       420.0000000
  free_energy:       -53.3598894
  entropy:           427.6990116
  heat_capacity:     271.9026940
  energy:            126.2736955

- temperature:       430.0000000
  free_energy:       -57.6690198
  entropy:           434.1043853
  heat_capacity:     272.5245141
  energy:            128.9958659

- temperature:       440.0000000
  free_energy:       -62.0415324
  entropy:           440.3763328
  heat_capacity:     273.1068103
  energy:            131.7240541

- temperature:       450.0000000
  free_energy:       -66.4761189
  entropy:           446.5200001
  heat_capacity:     273.6528143
  energy:            134.4578812

- temperature:       460.0000000
  free_energy:       -70.9715211
  entropy:           452.5402613
  heat_capacity:     274.1654392
  energy:            137.1969991

- temperature:       470.0000000
  free_energy:       -75.5265282
  entropy:           458.4417354
  heat_capacity:     274.6473154
  energy:            139.9410875

- temperature:       480.0000000
  free_energy:       -80.1399744
  entropy:           464.2288028
  heat_capacity:     275.1008229
  energy:            142.6898509

- temperature:       490.0000000
  free_energy:       -84.8107368
  entropy:           469.9056191
  heat_capacity:     275.5281189
  energy:            145.4430166

- temperature:       500.0000000
  free_energy:       -89.5377325
  entropy:           475.4761299
  heat_capacity:     275.9311617
  energy:            148.2003324

- temperature:       510.0000000
  free_energy:       -94.3199175
  entropy:           480.9440832
  heat_capacity:     276.3117323
  energy:            150.9615649

- temperature:       520.0000000
  free_energy:       -99.1562842
  entropy:           486.3130419
  heat_capacity:     276.6714531
  energy:            153.7264976

- temperature:       530.0000000
  free_energy:      -104.0458597
  entropy:           491.5863946
  heat_capacity:     277.0118041
  energy:            156.4949294

- temperature:       540.0000000
  free_energy:      -108.9877042
  entropy:           496.7673663
  heat_capacity:     277.3341379
  energy:            159.2666736

- temperature:       550.0000000
  free_energy:      -113.9809093
  entropy:           501.8590284
  heat_capacity:     277.6396919
  energy:            162.0415563

- temperature:       560.0000000
  free_energy:      -119.0245968
  entropy:           506.8643074
  heat_capacity:     277.9296004
  energy:            164.8194153

- temperature:       570.0000000
  free_energy:      -124.1179169
  entropy:           511.7859938
  heat_capacity:     278.2049042
  energy:            167.6000996

- temperature:       580.0000000
  free_energy:      -129.2600469
  entropy:           516.6267498
  heat_capacity:     278.4665597
  energy:            170.3834679

- temperature:       590.0000000
  free_energy:      -134.4501906
  entropy:           521.3891166
  heat_capacity:     278.7154470
  energy:            173.1693883

- temperature:       600.0000000
  free_energy:      -139.6875761
  entropy:           526.0755218
  heat_capacity:     278.9523770
  energy:            175.9577370

- temperature:       610.0000000
  free_energy:      -144.9714555
  entropy:           530.6882852
  heat_capacity:     279.1780976
  energy:            178.7483984

- temperature:       620.0000000
  free_energy:      -150.3011037
  entropy:           535.2296252
  heat_capacity:     279.3932998
  energy:            181.5412639

- temperature:       630.0000000
  free_energy:      -155.6758170
  entropy:           539.7016644
  heat_capacity:     279.5986224
  energy:            184.3362315

- temperature:       640.0000000
  free_energy:      -161.0949128
  entropy:           544.1064347
  heat_capacity:     279.7946569
  energy:            187.1332054

- temperature:       650.0000000
  free_energy:      -166.5577280
  entropy:           548.4458823
  heat_capacity:     279.9819513
  energy:            189.9320955

- temperature:       660.0000000
  free_energy:      -172.0636189
  entropy:           552.7218726
  heat_capacity:     280.1610143
  energy:            192.7328170

- temperature:       670.0000000
  free_energy:      -177.6119599
  entropy:           556.9361938
  heat_capacity:     280.3323181
  energy:            195.5352899

- temperature:       680.0000000
  free_energy:      -183.2021429
  entropy:           561.0905616
  heat_capacity:     280.4963020
  energy:            198.3394390

- temperature:       690.0000000
  free_energy:      -188.8335768
  entropy:           565.1866228
  heat_capacity:     280.6533745
  energy:            201.1451929

- temperature:       700.0000000
  free_energy:      -194.5056863
  entropy:           569.2259586
  heat_capacity:     280.8039166
  energy:            203.9524847

- temperature:       710.0000000
  free_energy:      -200.2179119
  entropy:           573.2100882
  heat_capacity:     280.9482832
  energy:            206.7612507

- temperature:       720.0000000
  free_energy:      -205.9697089
  entropy:           577.1404720
  heat_capacity:     281.0868057
  energy:            209.5714309

- temperature:       730.0000000
  free_energy:      -211.7605469
  entropy:           581.0185141
  heat_capacity:     281.2197936
  energy:            212.3829684

- temperature:       740.0000000
  free_energy:      -217.5899093
  entropy:           584.8455656
  heat_capacity:     281.3475365
  energy:            215.1958093

- temperature:       750.0000000
  free_energy:      -223.4572926
  entropy:           588.6229268
  heat_capacity:     281.4703050
  energy:            218.0099025

- temperature:       760.0000000
  free_energy:      -229.3622063
  entropy:           592.3518500
  heat_capacity:     281.5883531
  energy:            220.8251996

- temperature:       770.0000000
  free_energy:      -235.3041722
  entropy:           596.0335413
  heat_capacity:     281.7019183
  energy:            223.6416546

- temperature:       780.0000000
  free_energy:      -241.2827236
  entropy:           599.6691633
  heat_capacity:     281.8112239
  energy:            226.4592238

- temperature:       790.0000000
  free_energy:      -247.2974056
  entropy:           603.2598370
  heat_capacity:     281.9164792
  energy:            229.2778656

- temperature:       800.0000000
  free_energy:      -253.3477741
  entropy:           606.8066433
  heat_capacity:     282.0178811
  energy:            232.0975405

- temperature:       810.0000000
  free_energy:      -259.4333957
  entropy:           610.3106256
  heat_capacity:     282.1156145
  energy:            234.9182110

- temperature:       820.0000000
  free_energy:      -265.5538473
  entropy:           613.7727908
  heat_capacity:     282.2098536
  energy:            237.7398412

- temperature:       830.0000000
  free_energy:      -271.7087154
  entropy:           617.1941113
  heat_capacity:     282.3007622
  energy:            240.5623970

- temperature:       840.0000000
  free_energy:      -277.8975965
  entropy:           620.5755266
  heat_capacity:     282.3884950
  energy:            243.3858458

- temperature:       850.0000000
  free_energy:      -284.1200959
  entropy:           623.9179444
  heat_capacity:     282.4731975
  energy:            246.2101568

- temperature:       860.0000000
  free_energy:      -290.3758283
  entropy:           627.2222424
  heat_capacity:     282.5550071
  energy:            249.0353002

- temperature:       870.0000000
  free_energy:      -296.6644166
  entropy:           630.4892693
  heat_capacity:     282.6340537
  energy:            251.8612477

- temperature:       880.0000000
  free_energy:      -302.9854922
  entropy:           633.7198461
  heat_capacity:     282.7104597
  energy:            254.6879724

- temperature:       890.0000000
  free_energy:      -309.3386946
  entropy:           636.9147676
  heat_capacity:     282.7843412
  energy:            257.5154485

- temperature:       900.0000000
  free_energy:      -315.7236712
  entropy:           640.0748027
  heat_capacity:     282.8558077
  energy:            260.3436512

- temperature:       910.0000000
  free_energy:      -322.1400769
  entropy:           643.2006965
  heat_capacity:     282.9249630
  energy:            263.1725569

- temperature:       920.0000000
  free_energy:      -328.5875738
  entropy:           646.2931705
  heat_capacity:     282.9919053
  energy:            266.0021431

- temperature:       930.0000000
  free_energy:      -335.0658312
  entropy:           649.3529239
  heat_capacity:     283.0567278
  energy:            268.8323880

- temperature:       940.0000000
  free_energy:      -341.5745255
  entropy:           652.3806344
  heat_capacity:     283.1195188
  energy:            271.6632709

- temperature:       950.0000000
  free_energy:      -348.1133393
  entropy:           655.3769591
  heat_capacity:     283.1803619
  energy:            274.4947719

- temperature:       960.0000000
  free_energy:      -354.6819621
  entropy:           658.3425354
  heat_capacity:     283.2393367
  energy:            277.3268719

- temperature:       970.0000000
  free_energy:      -361.2800896
  entropy:           661.2779817
  heat_capacity:     283.2965188
  energy:            280.1595526

- temperature:       980.0000000
  free_energy:      -367.9074233
  entropy:           664.1838978
  heat_capacity:     283.3519797
  energy:            282.9927965

- temperature:       990.0000000
  free_energy:      -374.5636710
  entropy:           667.0608664
  heat_capacity:     283.4057877
  energy:            285.8265867

- temperature:      1000.0000000
  free_energy:      -381.2485461
  entropy:           669.9094530
  heat_capacity:     283.4580077
  energy:            288.6609070
