phonopy:
  version: "2.37.1"
  frequency_unit_conversion_factor: 15.633302
  symmetry_tolerance: 1.00000e-05

space_group:
  type: "Pnma"
  number: 62
  Hall_symbol: "-P 2ac 2n"

primitive_matrix:
- [  0.000000000000000, -1.000000000000000,  0.000000000000000 ]
- [ -0.000000000000000,  0.000000000000000,  1.000000000000000 ]
- [ -1.000000000000000,  0.000000000000000,  0.000000000000000 ]

supercell_matrix:
- [   2,   0,   0 ]
- [   0,   2,   0 ]
- [   0,   0,   2 ]

primitive_cell:
  lattice:
  - [     0.000000191472923,     0.000000414611437,    -5.663650389910034 ] # a
  - [    -5.100523969070770,     0.000000000000000,     0.000000000000000 ] # b
  - [    -0.000000396247537,     5.995862132261879,     0.000000000000000 ] # c
  points:
  - symbol: Li # 1
    coordinates: [  0.901474686524606,  0.250000021010685,  0.873904327631329 ]
    mass: 6.940000
  - symbol: Li # 2
    coordinates: [  0.598525271803221,  0.749999972758434,  0.373904311324252 ]
    mass: 6.940000
  - symbol: Li # 3
    coordinates: [  0.401474723026126,  0.250000013773456,  0.626095676713014 ]
    mass: 6.940000
  - symbol: Li # 4
    coordinates: [  0.098525315871653,  0.749999994219832,  0.126095673669397 ]
    mass: 6.940000
  - symbol: Sn # 5
    coordinates: [  0.908988707718640,  0.249999997987953,  0.372875191780154 ]
    mass: 118.710000
  - symbol: Sn # 6
    coordinates: [  0.591011244855025,  0.749999989665177,  0.872875202385815 ]
    mass: 118.710000
  - symbol: Sn # 7
    coordinates: [  0.408988742586609,  0.250000020653156,  0.127124792732894 ]
    mass: 118.710000
  - symbol: Sn # 8
    coordinates: [  0.091011308588792,  0.749999992562387,  0.627124825321837 ]
    mass: 118.710000
  reciprocal_lattice: # without 2pi
  - [    -0.000000000000000,     0.000000000000000,    -0.176564570754849 ] # a*
  - [    -0.196058288533478,    -0.000000012956871,    -0.000000006628209 ] # b*
  - [    -0.000000000000000,     0.166781686760159,     0.000000012209369 ] # c*

unit_cell:
  lattice:
  - [     5.100523969070769,     0.000000000000000,     0.000000000000000 ] # a
  - [    -0.000000396247537,     5.995862132261879,     0.000000000000000 ] # b
  - [    -0.000000191472923,    -0.000000414611437,     5.663650389910034 ] # c
  points:
  - symbol: Li # 1
    coordinates: [  0.749999978989315,  0.873904327631329,  0.098525313475394 ]
    mass: 6.940000
    reduced_to: 1
  - symbol: Li # 2
    coordinates: [  0.250000027241566,  0.373904311324252,  0.401474728196779 ]
    mass: 6.940000
    reduced_to: 2
  - symbol: Li # 3
    coordinates: [  0.749999986226545,  0.626095676713014,  0.598525276973874 ]
    mass: 6.940000
    reduced_to: 3
  - symbol: Li # 4
    coordinates: [  0.250000005780168,  0.126095673669397,  0.901474684128347 ]
    mass: 6.940000
    reduced_to: 4
  - symbol: Sn # 5
    coordinates: [  0.750000002012048,  0.372875191780154,  0.091011292281360 ]
    mass: 118.710000
    reduced_to: 5
  - symbol: Sn # 6
    coordinates: [  0.250000010334823,  0.872875202385815,  0.408988755144975 ]
    mass: 118.710000
    reduced_to: 6
  - symbol: Sn # 7
    coordinates: [  0.749999979346844,  0.127124792732894,  0.591011257413391 ]
    mass: 118.710000
    reduced_to: 7
  - symbol: Sn # 8
    coordinates: [  0.250000007437613,  0.627124825321837,  0.908988691411208 ]
    mass: 118.710000
    reduced_to: 8

supercell:
  lattice:
  - [    10.201047938141539,     0.000000000000000,     0.000000000000000 ] # a
  - [    -0.000000792495074,    11.991724264523757,     0.000000000000000 ] # b
  - [    -0.000000382945846,    -0.000000829222873,    11.327300779820067 ] # c
  points:
  - symbol: Li # 1
    coordinates: [  0.374999989494658,  0.436952163815665,  0.049262656737697 ]
    mass: 6.940000
    reduced_to: 1
  - symbol: Li # 2
    coordinates: [  0.874999989494658,  0.436952163815665,  0.049262656737697 ]
    mass: 6.940000
    reduced_to: 1
  - symbol: Li # 3
    coordinates: [  0.374999989494658,  0.936952163815665,  0.049262656737697 ]
    mass: 6.940000
    reduced_to: 1
  - symbol: Li # 4
    coordinates: [  0.874999989494658,  0.936952163815665,  0.049262656737697 ]
    mass: 6.940000
    reduced_to: 1
  - symbol: Li # 5
    coordinates: [  0.374999989494658,  0.436952163815665,  0.549262656737697 ]
    mass: 6.940000
    reduced_to: 1
  - symbol: Li # 6
    coordinates: [  0.874999989494658,  0.436952163815665,  0.549262656737697 ]
    mass: 6.940000
    reduced_to: 1
  - symbol: Li # 7
    coordinates: [  0.374999989494658,  0.936952163815665,  0.549262656737697 ]
    mass: 6.940000
    reduced_to: 1
  - symbol: Li # 8
    coordinates: [  0.874999989494658,  0.936952163815665,  0.549262656737697 ]
    mass: 6.940000
    reduced_to: 1
  - symbol: Li # 9
    coordinates: [  0.125000013620783,  0.186952155662126,  0.200737364098390 ]
    mass: 6.940000
    reduced_to: 9
  - symbol: Li # 10
    coordinates: [  0.625000013620783,  0.186952155662126,  0.200737364098390 ]
    mass: 6.940000
    reduced_to: 9
  - symbol: Li # 11
    coordinates: [  0.125000013620783,  0.686952155662126,  0.200737364098390 ]
    mass: 6.940000
    reduced_to: 9
  - symbol: Li # 12
    coordinates: [  0.625000013620783,  0.686952155662126,  0.200737364098390 ]
    mass: 6.940000
    reduced_to: 9
  - symbol: Li # 13
    coordinates: [  0.125000013620783,  0.186952155662126,  0.700737364098390 ]
    mass: 6.940000
    reduced_to: 9
  - symbol: Li # 14
    coordinates: [  0.625000013620783,  0.186952155662126,  0.700737364098390 ]
    mass: 6.940000
    reduced_to: 9
  - symbol: Li # 15
    coordinates: [  0.125000013620783,  0.686952155662126,  0.700737364098390 ]
    mass: 6.940000
    reduced_to: 9
  - symbol: Li # 16
    coordinates: [  0.625000013620783,  0.686952155662126,  0.700737364098390 ]
    mass: 6.940000
    reduced_to: 9
  - symbol: Li # 17
    coordinates: [  0.374999993113272,  0.313047838356507,  0.299262638486937 ]
    mass: 6.940000
    reduced_to: 17
  - symbol: Li # 18
    coordinates: [  0.874999993113272,  0.313047838356507,  0.299262638486937 ]
    mass: 6.940000
    reduced_to: 17
  - symbol: Li # 19
    coordinates: [  0.374999993113272,  0.813047838356507,  0.299262638486937 ]
    mass: 6.940000
    reduced_to: 17
  - symbol: Li # 20
    coordinates: [  0.874999993113272,  0.813047838356507,  0.299262638486937 ]
    mass: 6.940000
    reduced_to: 17
  - symbol: Li # 21
    coordinates: [  0.374999993113272,  0.313047838356507,  0.799262638486937 ]
    mass: 6.940000
    reduced_to: 17
  - symbol: Li # 22
    coordinates: [  0.874999993113272,  0.313047838356507,  0.799262638486937 ]
    mass: 6.940000
    reduced_to: 17
  - symbol: Li # 23
    coordinates: [  0.374999993113272,  0.813047838356507,  0.799262638486937 ]
    mass: 6.940000
    reduced_to: 17
  - symbol: Li # 24
    coordinates: [  0.874999993113272,  0.813047838356507,  0.799262638486937 ]
    mass: 6.940000
    reduced_to: 17
  - symbol: Li # 25
    coordinates: [  0.125000002890084,  0.063047836834699,  0.450737342064174 ]
    mass: 6.940000
    reduced_to: 25
  - symbol: Li # 26
    coordinates: [  0.625000002890084,  0.063047836834699,  0.450737342064174 ]
    mass: 6.940000
    reduced_to: 25
  - symbol: Li # 27
    coordinates: [  0.125000002890084,  0.563047836834699,  0.450737342064174 ]
    mass: 6.940000
    reduced_to: 25
  - symbol: Li # 28
    coordinates: [  0.625000002890084,  0.563047836834699,  0.450737342064174 ]
    mass: 6.940000
    reduced_to: 25
  - symbol: Li # 29
    coordinates: [  0.125000002890084,  0.063047836834699,  0.950737342064174 ]
    mass: 6.940000
    reduced_to: 25
  - symbol: Li # 30
    coordinates: [  0.625000002890084,  0.063047836834699,  0.950737342064174 ]
    mass: 6.940000
    reduced_to: 25
  - symbol: Li # 31
    coordinates: [  0.125000002890084,  0.563047836834699,  0.950737342064174 ]
    mass: 6.940000
    reduced_to: 25
  - symbol: Li # 32
    coordinates: [  0.625000002890084,  0.563047836834699,  0.950737342064174 ]
    mass: 6.940000
    reduced_to: 25
  - symbol: Sn # 33
    coordinates: [  0.375000001006024,  0.186437595890077,  0.045505646140680 ]
    mass: 118.710000
    reduced_to: 33
  - symbol: Sn # 34
    coordinates: [  0.875000001006024,  0.186437595890077,  0.045505646140680 ]
    mass: 118.710000
    reduced_to: 33
  - symbol: Sn # 35
    coordinates: [  0.375000001006024,  0.686437595890077,  0.045505646140680 ]
    mass: 118.710000
    reduced_to: 33
  - symbol: Sn # 36
    coordinates: [  0.875000001006024,  0.686437595890077,  0.045505646140680 ]
    mass: 118.710000
    reduced_to: 33
  - symbol: Sn # 37
    coordinates: [  0.375000001006024,  0.186437595890077,  0.545505646140680 ]
    mass: 118.710000
    reduced_to: 33
  - symbol: Sn # 38
    coordinates: [  0.875000001006024,  0.186437595890077,  0.545505646140680 ]
    mass: 118.710000
    reduced_to: 33
  - symbol: Sn # 39
    coordinates: [  0.375000001006024,  0.686437595890077,  0.545505646140680 ]
    mass: 118.710000
    reduced_to: 33
  - symbol: Sn # 40
    coordinates: [  0.875000001006024,  0.686437595890077,  0.545505646140680 ]
    mass: 118.710000
    reduced_to: 33
  - symbol: Sn # 41
    coordinates: [  0.125000005167411,  0.436437601192907,  0.204494377572488 ]
    mass: 118.710000
    reduced_to: 41
  - symbol: Sn # 42
    coordinates: [  0.625000005167411,  0.436437601192907,  0.204494377572488 ]
    mass: 118.710000
    reduced_to: 41
  - symbol: Sn # 43
    coordinates: [  0.125000005167411,  0.936437601192907,  0.204494377572488 ]
    mass: 118.710000
    reduced_to: 41
  - symbol: Sn # 44
    coordinates: [  0.625000005167411,  0.936437601192907,  0.204494377572488 ]
    mass: 118.710000
    reduced_to: 41
  - symbol: Sn # 45
    coordinates: [  0.125000005167411,  0.436437601192907,  0.704494377572487 ]
    mass: 118.710000
    reduced_to: 41
  - symbol: Sn # 46
    coordinates: [  0.625000005167411,  0.436437601192907,  0.704494377572487 ]
    mass: 118.710000
    reduced_to: 41
  - symbol: Sn # 47
    coordinates: [  0.125000005167411,  0.936437601192907,  0.704494377572487 ]
    mass: 118.710000
    reduced_to: 41
  - symbol: Sn # 48
    coordinates: [  0.625000005167411,  0.936437601192907,  0.704494377572487 ]
    mass: 118.710000
    reduced_to: 41
  - symbol: Sn # 49
    coordinates: [  0.374999989673422,  0.063562396366447,  0.295505628706695 ]
    mass: 118.710000
    reduced_to: 49
  - symbol: Sn # 50
    coordinates: [  0.874999989673422,  0.063562396366447,  0.295505628706695 ]
    mass: 118.710000
    reduced_to: 49
  - symbol: Sn # 51
    coordinates: [  0.374999989673422,  0.563562396366447,  0.295505628706695 ]
    mass: 118.710000
    reduced_to: 49
  - symbol: Sn # 52
    coordinates: [  0.874999989673422,  0.563562396366447,  0.295505628706695 ]
    mass: 118.710000
    reduced_to: 49
  - symbol: Sn # 53
    coordinates: [  0.374999989673422,  0.063562396366447,  0.795505628706695 ]
    mass: 118.710000
    reduced_to: 49
  - symbol: Sn # 54
    coordinates: [  0.874999989673422,  0.063562396366447,  0.795505628706695 ]
    mass: 118.710000
    reduced_to: 49
  - symbol: Sn # 55
    coordinates: [  0.374999989673422,  0.563562396366447,  0.795505628706695 ]
    mass: 118.710000
    reduced_to: 49
  - symbol: Sn # 56
    coordinates: [  0.874999989673422,  0.563562396366447,  0.795505628706695 ]
    mass: 118.710000
    reduced_to: 49
  - symbol: Sn # 57
    coordinates: [  0.125000003718807,  0.313562412660919,  0.454494345705604 ]
    mass: 118.710000
    reduced_to: 57
  - symbol: Sn # 58
    coordinates: [  0.625000003718807,  0.313562412660919,  0.454494345705604 ]
    mass: 118.710000
    reduced_to: 57
  - symbol: Sn # 59
    coordinates: [  0.125000003718807,  0.813562412660919,  0.454494345705604 ]
    mass: 118.710000
    reduced_to: 57
  - symbol: Sn # 60
    coordinates: [  0.625000003718807,  0.813562412660919,  0.454494345705604 ]
    mass: 118.710000
    reduced_to: 57
  - symbol: Sn # 61
    coordinates: [  0.125000003718807,  0.313562412660919,  0.954494345705604 ]
    mass: 118.710000
    reduced_to: 57
  - symbol: Sn # 62
    coordinates: [  0.625000003718807,  0.313562412660919,  0.954494345705604 ]
    mass: 118.710000
    reduced_to: 57
  - symbol: Sn # 63
    coordinates: [  0.125000003718807,  0.813562412660919,  0.954494345705604 ]
    mass: 118.710000
    reduced_to: 57
  - symbol: Sn # 64
    coordinates: [  0.625000003718807,  0.813562412660919,  0.954494345705604 ]
    mass: 118.710000
    reduced_to: 57

displacements:
- atom:    1
  displacement:
    [   0.0064794637873337,  0.0076168595253314,  0.0000000000000000 ]
  forces:
  - [  -0.0098106358200312, -0.0189492851495743, -0.0535963438451290 ]
  - [   0.0006451434455812, -0.0031484309583902, -0.0520133450627327 ]
  - [   0.0000261059030890, -0.0050219297409058, -0.0520284511148930 ]
  - [   0.0000061271712184, -0.0029869587160647, -0.0519559569656849 ]
  - [   0.0000374345108867, -0.0031965230591595, -0.0520043149590492 ]
  - [  -0.0000435514375567, -0.0030218325555325, -0.0520036891102791 ]
  - [  -0.0000005215406418, -0.0029782112687826, -0.0519855134189129 ]
  - [   0.0000011390075088, -0.0030484101735055, -0.0519810169935226 ]
  - [  -0.0001275867689401, -0.0032116970978677,  0.0517855882644653 ]
  - [  -0.0001149522577180, -0.0030435570515692,  0.0517924316227436 ]
  - [  -0.0000202488663490, -0.0031215688213706,  0.0519434176385403 ]
  - [  -0.0002294731675647, -0.0031403610482812,  0.0517466366291046 ]
  - [   0.0000607959882473, -0.0030560893937945,  0.0519353821873665 ]
  - [   0.0000273391124210, -0.0030673672445118,  0.0519614294171333 ]
  - [   0.0000398564807256, -0.0030783582478762,  0.0520386472344398 ]
  - [   0.0000512717524543, -0.0030490476638079,  0.0519844330847263 ]
  - [   0.0001547017600387,  0.0034833634272218, -0.0526541844010353 ]
  - [  -0.0005425113486126,  0.0030656671151519, -0.0520018637180328 ]
  - [  -0.0000095298746601,  0.0031732339411974, -0.0519031956791878 ]
  - [   0.0000090516405180,  0.0030309893190861, -0.0519737266004086 ]
  - [   0.0001549944281578,  0.0034825988113880, -0.0515993982553482 ]
  - [  -0.0005351733416319,  0.0030619297176600, -0.0521730333566666 ]
  - [  -0.0000088373199105,  0.0031726472079754, -0.0518299527466297 ]
  - [   0.0000077979639173,  0.0030334210023284, -0.0520227700471878 ]
  - [   0.0000009897973996,  0.0030262423679233,  0.0519659593701363 ]
  - [  -0.0000012422840427,  0.0030237361788750,  0.0519765913486481 ]
  - [  -0.0000237626645685,  0.0029732054099441,  0.0518855936825275 ]
  - [   0.0000897823265404,  0.0030718501657248,  0.0520656406879425 ]
  - [   0.0000699910306139,  0.0031763878650963,  0.0520624443888664 ]
  - [   0.0001398197637172,  0.0032399566844106,  0.0520324930548668 ]
  - [   0.0000807655014796,  0.0027395933866501,  0.0520329102873802 ]
  - [   0.0014570683706552,  0.0039099371060729,  0.0514206513762474 ]
  - [  -0.0003642477095127,  0.0062964186072350,  0.0379796177148819 ]
  - [  -0.0004302095621824, -0.0009401123970747,  0.0376738347113132 ]
  - [   0.0002499595284462,  0.0066569540649652,  0.0376918353140354 ]
  - [  -0.0000808886252344, -0.0008853022009134,  0.0377146936953068 ]
  - [  -0.0000585764646530, -0.0009804535657167,  0.0378156006336212 ]
  - [   0.0000528264790773, -0.0007697921246290,  0.0377965047955513 ]
  - [   0.0000605764798820, -0.0006385575979948,  0.0377090051770210 ]
  - [  -0.0000060633756220, -0.0007677879184484,  0.0377552993595600 ]
  - [   0.0028604795224965, -0.0005050599575043, -0.0399740114808083 ]
  - [   0.0030230749398470, -0.0012994334101677, -0.0359040312469006 ]
  - [   0.0000529940807610, -0.0006664283573627, -0.0376628041267395 ]
  - [  -0.0000559312611585, -0.0006933752447367, -0.0376965329051018 ]
  - [   0.0001347852230538, -0.0007346384227276, -0.0377344377338886 ]
  - [   0.0000201959628612, -0.0007603727281094, -0.0379175730049610 ]
  - [   0.0000792247374193, -0.0006928369402885, -0.0378441773355007 ]
  - [  -0.0000811629579403, -0.0007455069571733, -0.0378066748380661 ]
  - [   0.0000297799706459,  0.0006069317460060,  0.0379090681672096 ]
  - [  -0.0000036242417991,  0.0008041299879551,  0.0376833416521549 ]
  - [  -0.0005070748738945,  0.0013608653098345,  0.0397503077983856 ]
  - [  -0.0002157986164093,  0.0007378496229649,  0.0377240888774395 ]
  - [  -0.0000256882049143,  0.0005322955548763,  0.0374881178140640 ]
  - [   0.0000362261198461,  0.0008021481335163,  0.0378272384405136 ]
  - [   0.0001564379781485,  0.0012456569820642,  0.0367955453693867 ]
  - [  -0.0002171364612877,  0.0008448194712400,  0.0379475913941860 ]
  - [  -0.0000706755017745,  0.0007825586944818, -0.0377142280340195 ]
  - [  -0.0000754532302381,  0.0008556786924601, -0.0379478409886360 ]
  - [  -0.0000465782359242,  0.0007832236588001, -0.0377804078161716 ]
  - [   0.0000460091978312,  0.0008036531507969, -0.0377672165632248 ]
  - [   0.0036777015775442,  0.0028226524591446, -0.0349378101527691 ]
  - [   0.0000976974843070,  0.0003203637897968, -0.0379606895148754 ]
  - [   0.0000999602489173,  0.0005420185625553, -0.0377623625099659 ]
  - [  -0.0000309646129608,  0.0007363427430391, -0.0377543196082115 ]
- atom:    1
  displacement:
    [  -0.0064794637873337, -0.0076168595253314,  0.0000000000000000 ]
  forces:
  - [   0.0099184662103653,  0.0129033708944917, -0.0503247603774071 ]
  - [  -0.0006486647762358, -0.0029331217519939, -0.0519479662179947 ]
  - [  -0.0000230274163187, -0.0010606837458909, -0.0519353523850441 ]
  - [  -0.0000054244883358, -0.0030951332300901, -0.0520061030983925 ]
  - [  -0.0000377162359655, -0.0028837881982327, -0.0519548207521439 ]
  - [   0.0000437926501036, -0.0030593522824347, -0.0519571527838707 ]
  - [   0.0000009089708328, -0.0031030988320708, -0.0519739314913750 ]
  - [  -0.0000002444721758, -0.0030354433692992, -0.0519796051084995 ]
  - [   0.0001368918892695, -0.0028622220270336,  0.0521683767437935 ]
  - [   0.0001142262335634, -0.0030361963436007,  0.0521681904792786 ]
  - [   0.0000255340855801, -0.0029579857364297,  0.0520113706588745 ]
  - [   0.0002184850454796, -0.0029466990381479,  0.0522006452083588 ]
  - [  -0.0000621847575530, -0.0030237096361816,  0.0520262531936169 ]
  - [  -0.0000290509742626, -0.0030138581059873,  0.0519999861717224 ]
  - [  -0.0000374945666408, -0.0030069965869188,  0.0519237369298935 ]
  - [  -0.0000509184901603, -0.0030347406864166,  0.0519764348864555 ]
  - [  -0.0001562405377626,  0.0025973431766033, -0.0513079389929771 ]
  - [   0.0005400239024311,  0.0030217152088881, -0.0519604720175266 ]
  - [   0.0000093302223831,  0.0029104491695762, -0.0520563051104546 ]
  - [  -0.0000063781626523,  0.0030485456809402, -0.0519875474274158 ]
  - [  -0.0001559322699904,  0.0025960253551602, -0.0523620285093784 ]
  - [   0.0005473997443914,  0.0030182683840394, -0.0517795532941818 ]
  - [   0.0000101914629340,  0.0029099835082889, -0.0521263480186462 ]
  - [  -0.0000075576826930,  0.0030507491901517, -0.0519371554255486 ]
  - [  -0.0000010081053006,  0.0030554058030248,  0.0519940182566643 ]
  - [   0.0000005974375199,  0.0030561583116651,  0.0519837178289890 ]
  - [   0.0000263333804469,  0.0031060669571161,  0.0520723424851894 ]
  - [  -0.0000889768998604,  0.0030097616836429,  0.0518955215811729 ]
  - [  -0.0000747848680476,  0.0029029008001089,  0.0518963895738125 ]
  - [  -0.0001437294122297,  0.0028480784967542,  0.0519285127520561 ]
  - [  -0.0000752906707930,  0.0033432389609516,  0.0519269555807114 ]
  - [  -0.0014166730688885,  0.0022015692666173,  0.0525226667523384 ]
  - [   0.0004084594547749, -0.0080544818192720,  0.0375482849776745 ]
  - [   0.0004410669207573, -0.0006075594574213,  0.0378456562757492 ]
  - [  -0.0002659591846168, -0.0079991556704044,  0.0378316454589367 ]
  - [   0.0000769197940826, -0.0006647799164057,  0.0378020144999027 ]
  - [   0.0000577345490456, -0.0005697831511497,  0.0377036854624748 ]
  - [  -0.0000500064343214, -0.0007808431982994,  0.0377223305404186 ]
  - [  -0.0000588111579418, -0.0009156260639429,  0.0378075651824474 ]
  - [   0.0000045234337449, -0.0007824655622244,  0.0377652794122696 ]
  - [  -0.0028899488970637, -0.0010227039456367, -0.0355108603835106 ]
  - [  -0.0029859631322324, -0.0002704486250877, -0.0395964160561562 ]
  - [  -0.0000559241780138, -0.0008879434317350, -0.0378545522689819 ]
  - [   0.0000533653364982, -0.0008616317063570, -0.0378222092986107 ]
  - [  -0.0001319875882473, -0.0008152797818184, -0.0377807617187500 ]
  - [  -0.0000216196203837, -0.0007922053337097, -0.0376004464924335 ]
  - [  -0.0000819662745926, -0.0008569043129683, -0.0376785993576050 ]
  - [   0.0000800472917035, -0.0008049421012402, -0.0377151668071747 ]
  - [  -0.0000288523733616,  0.0009489823132753,  0.0376128368079662 ]
  - [   0.0000063390471041,  0.0007497780025005,  0.0378401204943657 ]
  - [   0.0004956214688718,  0.0001829154789448,  0.0357884950935841 ]
  - [   0.0002142339944839,  0.0008088424801826,  0.0377954132854939 ]
  - [   0.0000257990323007,  0.0010181963443756,  0.0380306169390678 ]
  - [  -0.0000350424088538,  0.0007477030158043,  0.0376904234290123 ]
  - [  -0.0001597004011273,  0.0003036782145500,  0.0387096628546715 ]
  - [   0.0002166358754039,  0.0007079392671585,  0.0375735498964787 ]
  - [   0.0000708064908395,  0.0007642544806004, -0.0378028303384781 ]
  - [   0.0000713491026545,  0.0006969962269068, -0.0375708863139153 ]
  - [   0.0000452860258520,  0.0007683876901865, -0.0377390757203102 ]
  - [  -0.0000456986017525,  0.0007460489869118, -0.0377511121332645 ]
  - [  -0.0038346606306732, -0.0013409219682217, -0.0406698733568192 ]
  - [  -0.0001216718374053,  0.0012433473020792, -0.0375498309731483 ]
  - [  -0.0001037796027958,  0.0010022204369307, -0.0377598442137241 ]
  - [   0.0000325320288539,  0.0008117984980345, -0.0377632528543472 ]
- atom:    1
  displacement:
    [  -0.0000000003380733, -0.0000000007320569,  0.0100000000000000 ]
  forces:
  - [   0.0000000945292413, -0.0052120988257229, -0.0649963840842247 ]
  - [  -0.0000002323649824, -0.0030843568965793, -0.0520900636911392 ]
  - [   0.0000010128132999, -0.0031043095514178, -0.0518924668431282 ]
  - [   0.0000003809109330, -0.0030085067264736, -0.0519920252263546 ]
  - [   0.0000002621673048, -0.0030733007006347, -0.0515485815703869 ]
  - [  -0.0000003031454980, -0.0030713845044374, -0.0519890785217285 ]
  - [   0.0000001997686923, -0.0030489233322442, -0.0519893020391464 ]
  - [   0.0000003310851753, -0.0030431039631367, -0.0519848726689816 ]
  - [   0.0001500569051132, -0.0028670961037278,  0.0518876165151596 ]
  - [  -0.0001503961102571, -0.0028670164756477,  0.0518879443407059 ]
  - [  -0.0000051892275224, -0.0027880696579814,  0.0518857017159462 ]
  - [   0.0000050043163355, -0.0027880668640137,  0.0518849641084671 ]
  - [   0.0000411819164583, -0.0030812835320830,  0.0520012788474560 ]
  - [  -0.0000418654453824, -0.0030813915655017,  0.0520016327500343 ]
  - [  -0.0000190267346625, -0.0030000861734152,  0.0520022064447403 ]
  - [   0.0000193082669284, -0.0030000414699316,  0.0520019307732582 ]
  - [   0.0000001783482730,  0.0025296285748482, -0.0509340129792690 ]
  - [  -0.0000000636791810,  0.0033024661242962, -0.0521292090415955 ]
  - [   0.0000002313172445,  0.0028444668278098, -0.0519219562411308 ]
  - [   0.0000011917436495,  0.0030960170552135, -0.0519700609147549 ]
  - [   0.0000000838190317,  0.0039094723761082, -0.0509695038199425 ]
  - [  -0.0000003753229976,  0.0030679395422339, -0.0521289557218552 ]
  - [   0.0000002356246114,  0.0029408996924758, -0.0519238747656345 ]
  - [   0.0000003790482879,  0.0030330382287502, -0.0519698783755302 ]
  - [  -0.0000082412352640,  0.0030294759199023,  0.0519985742866993 ]
  - [   0.0000079695992099,  0.0030287569388747,  0.0519986525177956 ]
  - [  -0.0001386906369589,  0.0030345306731761,  0.0521989986300468 ]
  - [   0.0001392455596942,  0.0030349250882864,  0.0521988421678543 ]
  - [   0.0000230385212490,  0.0031301355920732,  0.0520280376076698 ]
  - [  -0.0000236470368691,  0.0031303633004427,  0.0520278513431549 ]
  - [   0.0004651078488678,  0.0027136858552694,  0.0523291900753975 ]
  - [  -0.0004650551709346,  0.0027148295193911,  0.0523296892642975 ]
  - [   0.0000002011656761, -0.0000926982611418,  0.0382861830294132 ]
  - [   0.0000005755573511, -0.0008308719843626,  0.0375210158526897 ]
  - [   0.0000006258487701, -0.0004554484039545,  0.0374348238110542 ]
  - [  -0.0000014682300389, -0.0006426554173231,  0.0377998538315296 ]
  - [   0.0000002719461918, -0.0007458683103323,  0.0371660515666008 ]
  - [   0.0000007245689631, -0.0007977019995451,  0.0377638787031174 ]
  - [   0.0000002877786756, -0.0007097609341145,  0.0381642803549767 ]
  - [  -0.0000006495974958, -0.0006649475544691,  0.0378569215536118 ]
  - [  -0.0027881721034646, -0.0016401540488005, -0.0361596383154392 ]
  - [   0.0027883155271411, -0.0016402788460255, -0.0361590459942818 ]
  - [   0.0000288906358037, -0.0007656626403332, -0.0377030447125435 ]
  - [  -0.0000314461758535, -0.0007651578634977, -0.0377026796340942 ]
  - [   0.0003411716024857, -0.0008946899324656, -0.0372797697782516 ]
  - [  -0.0003417569678277, -0.0008951574563980, -0.0372798070311546 ]
  - [  -0.0000283865902020, -0.0008207764476538, -0.0377998612821102 ]
  - [   0.0000261728418991, -0.0008201859891415, -0.0378003865480423 ]
  - [   0.0000013094395399,  0.0006368216127157,  0.0377949364483356 ]
  - [   0.0000011730007827,  0.0007647406309843,  0.0377144776284695 ]
  - [   0.0000003981404006,  0.0028336793184280,  0.0408706702291965 ]
  - [  -0.0000007483176887,  0.0008734408766031,  0.0376864746212959 ]
  - [   0.0000007590278983,  0.0009203124791384,  0.0377491638064384 ]
  - [   0.0000003017485142,  0.0008587855845690,  0.0378204360604286 ]
  - [   0.0000005513429642,  0.0001054126769304,  0.0390171930193901 ]
  - [   0.0000012260861695,  0.0007749386131763,  0.0377785712480545 ]
  - [  -0.0000104614191514,  0.0008119959384203, -0.0379136726260185 ]
  - [   0.0000093532362371,  0.0008133128285408, -0.0379130989313126 ]
  - [  -0.0000633322633803,  0.0007732789963484, -0.0377673730254173 ]
  - [   0.0000627557747066,  0.0007728002965450, -0.0377669222652912 ]
  - [   0.0007859214092605,  0.0012319087982178, -0.0369073301553726 ]
  - [  -0.0007855576695874,  0.0012323278933764, -0.0369070172309875 ]
  - [   0.0000238502398133,  0.0006792601197958, -0.0377999544143677 ]
  - [  -0.0000252574682236,  0.0006773937493563, -0.0377982854843140 ]
- atom:    1
  displacement:
    [   0.0000000003380733,  0.0000000007320569, -0.0100000000000000 ]
  forces:
  - [   0.0000003911554813, -0.0009180186316371, -0.0390220470726490 ]
  - [  -0.0000001881271601, -0.0029983725398779, -0.0518704503774643 ]
  - [   0.0000010202638805, -0.0029823072254658, -0.0520678684115410 ]
  - [   0.0000004987232387, -0.0030740513466299, -0.0519698485732079 ]
  - [   0.0000002803280950, -0.0030081477016211, -0.0524085462093353 ]
  - [  -0.0000003511086106, -0.0030101174488664, -0.0519727095961571 ]
  - [   0.0000001699663699, -0.0030338638462126, -0.0519702546298504 ]
  - [   0.0000004512257874, -0.0030409554019570, -0.0519762933254242 ]
  - [  -0.0001480041828472, -0.0032097510993481,  0.0520727857947350 ]
  - [   0.0001475183817092, -0.0032097925432026,  0.0520731210708618 ]
  - [   0.0000003716704668, -0.0032863207161427,  0.0520705804228783 ]
  - [  -0.0000005432812031, -0.0032861428335309,  0.0520700551569462 ]
  - [  -0.0000411950786656, -0.0030006770975888,  0.0519579313695431 ]
  - [   0.0000406135077355, -0.0030006915330887,  0.0519585087895393 ]
  - [   0.0000213964485738, -0.0030848626047373,  0.0519589819014072 ]
  - [  -0.0000210812431760, -0.0030847294256091,  0.0519585683941841 ]
  - [   0.0000002511078492,  0.0035313135012984, -0.0529960766434669 ]
  - [  -0.0000001131556928,  0.0027860160917044, -0.0518317185342312 ]
  - [   0.0000001835869625,  0.0032335016876459, -0.0520375967025757 ]
  - [   0.0000012028031051,  0.0029836501926184, -0.0519907921552658 ]
  - [   0.0000000596046448,  0.0021417001262307, -0.0530314520001411 ]
  - [  -0.0000004395842552,  0.0030133202672005, -0.0518312305212021 ]
  - [   0.0000001927837729,  0.0031422404572368, -0.0520394146442413 ]
  - [   0.0000002728775144,  0.0030513377860188, -0.0519902855157852 ]
  - [   0.0000080383952081,  0.0030523799359798,  0.0519613921642303 ]
  - [  -0.0000084173470896,  0.0030517885461450,  0.0519615039229393 ]
  - [   0.0001365833450109,  0.0030454406514764,  0.0517631843686104 ]
  - [  -0.0001359388843412,  0.0030457507818937,  0.0517629012465477 ]
  - [  -0.0000247791031143,  0.0029528988525271,  0.0519317016005516 ]
  - [   0.0000241558645939,  0.0029530110768974,  0.0519315674901009 ]
  - [  -0.0004670657799579,  0.0033678337931633,  0.0516324788331985 ]
  - [   0.0004669605405070,  0.0033688684925437,  0.0516331642866135 ]
  - [   0.0000005718320608, -0.0014212541282177,  0.0372374355792999 ]
  - [   0.0000003483146429, -0.0007181968539953,  0.0379958674311638 ]
  - [   0.0000004707835615, -0.0011078231036663,  0.0380788780748844 ]
  - [  -0.0000013723038137, -0.0009071398526430,  0.0377156734466553 ]
  - [   0.0000001601874828, -0.0008013620972633,  0.0383535251021385 ]
  - [   0.0000009797513485, -0.0007508788257837,  0.0377542823553085 ]
  - [   0.0000002011656761, -0.0008587464690208,  0.0373528376221657 ]
  - [  -0.0000005564652383, -0.0008859355002642,  0.0376645475625992 ]
  - [   0.0027217399328947,  0.0000747181475163, -0.0393537655472755 ]
  - [  -0.0027219550684094,  0.0000750236213207, -0.0393532663583755 ]
  - [  -0.0000305509383907, -0.0007906965911388, -0.0378155186772346 ]
  - [   0.0000278189218079, -0.0007900837808847, -0.0378153696656227 ]
  - [  -0.0003413098456804, -0.0006567128002644, -0.0382345132529736 ]
  - [   0.0003408820775803, -0.0006573591381311, -0.0382342822849751 ]
  - [   0.0000271775697911, -0.0007297229021788, -0.0377205684781075 ]
  - [  -0.0000292471377179, -0.0007294919341803, -0.0377210080623627 ]