# Thermal properties / unit cell (natom)

unit:
  temperature:   K
  free_energy:   kJ/mol
  entropy:       J/K/mol
  heat_capacity: J/K/mol

natom: 8    
cutoff_frequency: 0.00000
num_modes: 146880
num_integrated_modes: 146878

zero_point_energy:      22.8948770

thermal_properties:
- temperature:         0.0000000
  free_energy:        22.8948770
  entropy:             0.0000000
  heat_capacity:       0.0000000
  energy:             22.8948770

- temperature:        10.0000000
  free_energy:        22.8919475
  entropy:             1.1688042
  heat_capacity:       3.7159951
  energy:             22.9036356

- temperature:        20.0000000
  free_energy:        22.8466433
  entropy:             9.3650684
  heat_capacity:      24.6308619
  energy:             23.0339447

- temperature:        30.0000000
  free_energy:        22.6829970
  entropy:            23.9755545
  heat_capacity:      48.1288596
  energy:             23.4022636

- temperature:        40.0000000
  free_energy:        22.3616876
  entropy:            40.3358613
  heat_capacity:      65.5250861
  energy:             23.9751220

- temperature:        50.0000000
  free_energy:        21.8772601
  entropy:            56.4504736
  heat_capacity:      78.9907657
  energy:             24.6997838

- temperature:        60.0000000
  free_energy:        21.2348974
  entropy:            71.9103873
  heat_capacity:      90.7788107
  energy:             25.5495206

- temperature:        70.0000000
  free_energy:        20.4411752
  entropy:            86.7340011
  heat_capacity:     101.7030868
  energy:             26.5125553

- temperature:        80.0000000
  free_energy:        19.5021179
  entropy:           100.9863912
  heat_capacity:     111.8566863
  energy:             27.5810291

- temperature:        90.0000000
  free_energy:        18.4232187
  entropy:           114.7066465
  heat_capacity:     121.1500072
  energy:             28.7468169

- temperature:       100.0000000
  free_energy:        17.2096994
  entropy:           127.9123136
  heat_capacity:     129.5160604
  energy:             30.0009307

- temperature:       110.0000000
  free_energy:        15.8666575
  entropy:           140.6124859
  heat_capacity:     136.9516675
  energy:             31.3340309

- temperature:       120.0000000
  free_energy:        14.3991057
  entropy:           152.8159389
  heat_capacity:     143.5045152
  energy:             32.7370184

- temperature:       130.0000000
  free_energy:        12.8119556
  entropy:           164.5344396
  heat_capacity:     149.2511776
  energy:             34.2014327

- temperature:       140.0000000
  free_energy:        11.1099827
  entropy:           175.7833242
  heat_capacity:     154.2796590
  energy:             35.7196481

- temperature:       150.0000000
  free_energy:         9.2977937
  entropy:           186.5808905
  heat_capacity:     158.6783542
  energy:             37.2849273

- temperature:       160.0000000
  free_energy:         7.3798017
  entropy:           196.9474442
  heat_capacity:     162.5300508
  energy:             38.8913928

- temperature:       170.0000000
  free_energy:         5.3602103
  entropy:           206.9043763
  heat_capacity:     165.9092219
  energy:             40.5339543

- temperature:       180.0000000
  free_energy:         3.2430071
  entropy:           216.4734107
  heat_capacity:     168.8812524
  energy:             42.2082210

- temperature:       190.0000000
  free_energy:         1.0319633
  entropy:           225.6760435
  heat_capacity:     171.5027015
  energy:             43.9104116

- temperature:       200.0000000
  free_energy:        -1.2693621
  entropy:           234.5331550
  heat_capacity:     173.8220614
  energy:             45.6372689

- temperature:       210.0000000
  free_energy:        -3.6576149
  entropy:           243.0647585
  heat_capacity:     175.8806990
  energy:             47.3859844

- temperature:       220.0000000
  free_energy:        -6.1296357
  entropy:           251.2898520
  heat_capacity:     177.7138185
  energy:             49.1541317

- temperature:       230.0000000
  free_energy:        -8.6824500
  entropy:           259.2263452
  heat_capacity:     179.3513597
  energy:             50.9396094

- temperature:       240.0000000
  free_energy:       -11.3132567
  entropy:           266.8910378
  heat_capacity:     180.8188007
  energy:             52.7405923

- temperature:       250.0000000
  free_energy:       -14.0194172
  entropy:           274.2996334
  heat_capacity:     182.1378536
  energy:             54.5554911

- temperature:       260.0000000
  free_energy:       -16.7984447
  entropy:           281.4667752
  heat_capacity:     183.3270583
  energy:             56.3829169

- temperature:       270.0000000
  free_energy:       -19.6479934
  entropy:           288.4060964
  heat_capacity:     184.4022846
  energy:             58.2216526

- temperature:       280.0000000
  free_energy:       -22.5658496
  entropy:           295.1302779
  heat_capacity:     185.3771526
  energy:             60.0706283

- temperature:       290.0000000
  free_energy:       -25.5499213
  entropy:           301.6511091
  heat_capacity:     186.2633851
  energy:             61.9289004

- temperature:       300.0000000
  free_energy:       -28.5982305
  entropy:           307.9795497
  heat_capacity:     187.0711014
  energy:             63.7956344

- temperature:       310.0000000
  free_energy:       -31.7089050
  entropy:           314.1257903
  heat_capacity:     187.8090627
  energy:             65.6700900

- temperature:       320.0000000
  free_energy:       -34.8801707
  entropy:           320.0993102
  heat_capacity:     188.4848770
  energy:             67.5516086

- temperature:       330.0000000
  free_energy:       -38.1103449
  entropy:           325.9089319
  heat_capacity:     189.1051706
  energy:             69.4396026

- temperature:       340.0000000
  free_energy:       -41.3978304
  entropy:           331.5628728
  heat_capacity:     189.6757314
  energy:             71.3335463

- temperature:       350.0000000
  free_energy:       -44.7411090
  entropy:           337.0687927
  heat_capacity:     190.2016297
  energy:             73.2329684

- temperature:       360.0000000
  free_energy:       -48.1387367
  entropy:           342.4338380
  heat_capacity:     190.6873198
  energy:             75.1374449

- temperature:       370.0000000
  free_energy:       -51.5893385
  entropy:           347.6646822
  heat_capacity:     191.1367251
  energy:             77.0465939

- temperature:       380.0000000
  free_energy:       -55.0916039
  entropy:           352.7675631
  heat_capacity:     191.5533110
  energy:             78.9600701

- temperature:       390.0000000
  free_energy:       -58.6442827
  entropy:           357.7483172
  heat_capacity:     191.9401462
  energy:             80.8775610

- temperature:       400.0000000
  free_energy:       -62.2461814
  entropy:           362.6124109
  heat_capacity:     192.2999549
  energy:             82.7987830

- temperature:       410.0000000
  free_energy:       -65.8961592
  entropy:           367.3649690
  heat_capacity:     192.6351613
  energy:             84.7234781

- temperature:       420.0000000
  free_energy:       -69.5931251
  entropy:           372.0108011
  heat_capacity:     192.9479277
  energy:             86.6514114

- temperature:       430.0000000
  free_energy:       -73.3360346
  entropy:           376.5544253
  heat_capacity:     193.2401876
  energy:             88.5823683

- temperature:       440.0000000
  free_energy:       -77.1238871
  entropy:           381.0000902
  heat_capacity:     193.5136730
  energy:             90.5161526

- temperature:       450.0000000
  free_energy:       -80.9557232
  entropy:           385.3517947
  heat_capacity:     193.7699396
  energy:             92.4525844

- temperature:       460.0000000
  free_energy:       -84.8306223
  entropy:           389.6133066
  heat_capacity:     194.0103867
  energy:             94.3914987

- temperature:       470.0000000
  free_energy:       -88.7477005
  entropy:           393.7881791
  heat_capacity:     194.2362763
  energy:             96.3327436

- temperature:       480.0000000
  free_energy:       -92.7061083
  entropy:           397.8797663
  heat_capacity:     194.4487482
  energy:             98.2761795

- temperature:       490.0000000
  free_energy:       -96.7050288
  entropy:           401.8912370
  heat_capacity:     194.6488339
  energy:            100.2216773

- temperature:       500.0000000
  free_energy:      -100.7436760
  entropy:           405.8255881
  heat_capacity:     194.8374689
  energy:            102.1691180

- temperature:       510.0000000
  free_energy:      -104.8212930
  entropy:           409.6856556
  heat_capacity:     195.0155026
  energy:            104.1183914

- temperature:       520.0000000
  free_energy:      -108.9371505
  entropy:           413.4741265
  heat_capacity:     195.1837078
  energy:            106.0693953

- temperature:       530.0000000
  free_energy:      -113.0905454
  entropy:           417.1935481
  heat_capacity:     195.3427890
  energy:            108.0220351

- temperature:       540.0000000
  free_energy:      -117.2807994
  entropy:           420.8463374
  heat_capacity:     195.4933890
  energy:            109.9762228

- temperature:       550.0000000
  free_energy:      -121.5072577
  entropy:           424.4347896
  heat_capacity:     195.6360955
  energy:            111.9318766

- temperature:       560.0000000
  free_energy:      -125.7692880
  entropy:           427.9610861
  heat_capacity:     195.7714465
  energy:            113.8889202

- temperature:       570.0000000
  free_energy:      -130.0662791
  entropy:           431.4273014
  heat_capacity:     195.8999355
  energy:            115.8472826

- temperature:       580.0000000
  free_energy:      -134.3976403
  entropy:           434.8354102
  heat_capacity:     196.0220152
  energy:            117.8068976

- temperature:       590.0000000
  free_energy:      -138.7627999
  entropy:           438.1872931
  heat_capacity:     196.1381022
  energy:            119.7677030

- temperature:       600.0000000
  free_energy:      -143.1612048
  entropy:           441.4847428
  heat_capacity:     196.2485799
  energy:            121.7296409

- temperature:       610.0000000
  free_energy:      -147.5923191
  entropy:           444.7294690
  heat_capacity:     196.3538016
  energy:            123.6926571

- temperature:       620.0000000
  free_energy:      -152.0556238
  entropy:           447.9231038
  heat_capacity:     196.4540935
  energy:            125.6567005

- temperature:       630.0000000
  free_energy:      -156.5506160
  entropy:           451.0672056
  heat_capacity:     196.5497572
  energy:            127.6217235

- temperature:       640.0000000
  free_energy:      -161.0768078
  entropy:           454.1632640
  heat_capacity:     196.6410713
  energy:            129.5876812

- temperature:       650.0000000
  free_energy:      -165.6337259
  entropy:           457.2127034
  heat_capacity:     196.7282942
  energy:            131.5545313

- temperature:       660.0000000
  free_energy:      -170.2209110
  entropy:           460.2168867
  heat_capacity:     196.8116655
  energy:            133.5222342

- temperature:       670.0000000
  free_energy:      -174.8379172
  entropy:           463.1771189
  heat_capacity:     196.8914074
  energy:            135.4907525

- temperature:       680.0000000
  free_energy:      -179.4843111
  entropy:           466.0946500
  heat_capacity:     196.9677265
  energy:            137.4600509

- temperature:       690.0000000
  free_energy:      -184.1596718
  entropy:           468.9706784
  heat_capacity:     197.0408150
  energy:            139.4300963

- temperature:       700.0000000
  free_energy:      -188.8635901
  entropy:           471.8063532
  heat_capacity:     197.1108519
  energy:            141.4008571

- temperature:       710.0000000
  free_energy:      -193.5956681
  entropy:           474.6027771
  heat_capacity:     197.1780038
  energy:            143.3723037

- temperature:       720.0000000
  free_energy:      -198.3555184
  entropy:           477.3610089
  heat_capacity:     197.2424265
  energy:            145.3444081

- temperature:       730.0000000
  free_energy:      -203.1427643
  entropy:           480.0820657
  heat_capacity:     197.3042652
  energy:            147.3171436

- temperature:       740.0000000
  free_energy:      -207.9570390
  entropy:           482.7669247
  heat_capacity:     197.3636557
  energy:            149.2904852

- temperature:       750.0000000
  free_energy:      -212.7979853
  entropy:           485.4165257
  heat_capacity:     197.4207249
  energy:            151.2644090

- temperature:       760.0000000
  free_energy:      -217.6652550
  entropy:           488.0317729
  heat_capacity:     197.4755919
  energy:            153.2388924

- temperature:       770.0000000
  free_energy:      -222.5585091
  entropy:           490.6135364
  heat_capacity:     197.5283681
  energy:            155.2139139

- temperature:       780.0000000
  free_energy:      -227.4774170
  entropy:           493.1626539
  heat_capacity:     197.5791579
  energy:            157.1894531

- temperature:       790.0000000
  free_energy:      -232.4216561
  entropy:           495.6799327
  heat_capacity:     197.6280595
  energy:            159.1654907

- temperature:       800.0000000
  free_energy:      -237.3909121
  entropy:           498.1661505
  heat_capacity:     197.6751649
  energy:            161.1420083

- temperature:       810.0000000
  free_energy:      -242.3848781
  entropy:           500.6220573
  heat_capacity:     197.7205607
  energy:            163.1189883

- temperature:       820.0000000
  free_energy:      -247.4032546
  entropy:           503.0483765
  heat_capacity:     197.7643285
  energy:            165.0964141

- temperature:       830.0000000
  free_energy:      -252.4457493
  entropy:           505.4458061
  heat_capacity:     197.8065448
  energy:            167.0742697

- temperature:       840.0000000
  free_energy:      -257.5120767
  entropy:           507.8150199
  heat_capacity:     197.8472820
  energy:            169.0525401

- temperature:       850.0000000
  free_energy:      -262.6019578
  entropy:           510.1566688
  heat_capacity:     197.8866080
  energy:            171.0312107

- temperature:       860.0000000
  free_energy:      -267.7151203
  entropy:           512.4713814
  heat_capacity:     197.9245871
  energy:            173.0102677

- temperature:       870.0000000
  free_energy:      -272.8512977
  entropy:           514.7597653
  heat_capacity:     197.9612800
  energy:            174.9896981

- temperature:       880.0000000
  free_energy:      -278.0102298
  entropy:           517.0224080
  heat_capacity:     197.9967439
  energy:            176.9694892

- temperature:       890.0000000
  free_energy:      -283.1916619
  entropy:           519.2598775
  heat_capacity:     198.0310329
  energy:            178.9496291

- temperature:       900.0000000
  free_energy:      -288.3953452
  entropy:           521.4727238
  heat_capacity:     198.0641983
  energy:            180.9301061

- temperature:       910.0000000
  free_energy:      -293.6210361
  entropy:           523.6614787
  heat_capacity:     198.0962883
  energy:            182.9109095

- temperature:       920.0000000
  free_energy:      -298.8684962
  entropy:           525.8266573
  heat_capacity:     198.1273490
  energy:            184.8920285

- temperature:       930.0000000
  free_energy:      -304.1374923
  entropy:           527.9687586
  heat_capacity:     198.1574237
  energy:            186.8734532

- temperature:       940.0000000
  free_energy:      -309.4277961
  entropy:           530.0882659
  heat_capacity:     198.1865536
  energy:            188.8551738

- temperature:       950.0000000
  free_energy:      -314.7391839
  entropy:           532.1856475
  heat_capacity:     198.2147778
  energy:            190.8371812

- temperature:       960.0000000
  free_energy:      -320.0714368
  entropy:           534.2613576
  heat_capacity:     198.2421334
  energy:            192.8194665

- temperature:       970.0000000
  free_energy:      -325.4243403
  entropy:           536.3158365
  heat_capacity:     198.2686556
  energy:            194.8020211

- temperature:       980.0000000
  free_energy:      -330.7976842
  entropy:           538.3495113
  heat_capacity:     198.2943777
  energy:            196.7848369

- temperature:       990.0000000
  free_energy:      -336.1912625
  entropy:           540.3627966
  heat_capacity:     198.3193316
  energy:            198.7679061

- temperature:      1000.0000000
  free_energy:      -341.6048735
  entropy:           542.3560946
  heat_capacity:     198.3435475
  energy:            200.7512211
