4
Lattice="4.0520309618404005 0.0018765049300214821 -0.0006621641586508218 -0.0014713488167050442 4.050889250632369 -0.001778311344008852 0.0008439775844307011 0.002274939425848471 4.452284598761796" Properties=species:S:1:pos:R:3:forces:R:3 structure_index=0 total_energy=-11.800210952758789 stress="-0.043313972651958466 0.0038506758864969015 0.00038226027390919626 0.003850598819553852 -0.04929894208908081 0.0010568952420726418 0.0003822370490524918 0.0010569029254838824 0.10537628829479218" pbc="T T T"
Li       1.29843931       1.89109062       2.71358987      -0.00064294       0.00022181      -0.00125660
Li       3.32336429       3.91721073       2.71222265      -0.00000429       0.00056061      -0.00099492
Ga       3.32374478       1.89089271       0.48683735      -0.00128053       0.00143983       0.00018026
Sn       1.29654798       3.91589845       0.48578481       0.00192776      -0.00222225       0.00207126
9
Lattice="4.079014385551493 0.003389445641007805 0.022137860603974435 2.024512239023736 5.872447428071544 1.748851110178149 -0.03946649969298944 0.13000583863598927 6.437653088413996" Properties=species:S:1:pos:R:3:forces:R:3 structure_index=1 total_energy=-24.675779342651367 stress="0.01780853606760502 0.0020699300803244114 -0.016420861706137657 0.002069873968139291 0.005362615920603275 -0.0026175507809966803 -0.016420884057879448 -0.002617480466142297 -0.010013540275394917" pbc="T T T"
Li       2.61390310       2.86463168       6.10684219      -0.00110962      -0.00341021      -0.02515410
Li       2.62028424       5.41264371       4.83572477      -0.00164121       0.01992174      -0.01310347
Li       4.66455879       3.40940385       4.17088106       0.00001547       0.00390873       0.00673257
Li       2.63585505       4.06464990       2.22472934       0.00078637      -0.00392757       0.01935548
Li       0.57897209       0.75386600       5.57534398      -0.00031002      -0.00836137       0.02027884
Ga       4.67049322       5.88284280       2.82552809       0.00059460       0.03887722       0.01180765
Ga       2.62920493       1.46147194       3.70590980       0.00072352      -0.02988472      -0.01382571
Ga       4.64836602       4.85596616       6.74128074      -0.00110289      -0.01169377       0.00675980
Sn       4.68029566       2.05221010       1.63734855       0.00204378      -0.00543004      -0.01285109
11
Lattice="4.415137926608336 -0.0014490480724792866 -1.4736067155152746 -1.1306586892742991 6.271013243227278 -3.398561522581462 -0.055689981872563285 -0.3196696686685856 7.1880954054523505" Properties=species:S:1:pos:R:3:forces:R:3 structure_index=2 total_energy=-29.15044593811035 stress="0.015097461640834808 0.0004648577596526593 -0.0012073250254616141 0.00046478130389004946 0.03638515993952751 0.00010301127622369677 -0.0012069974327459931 0.00010289385681971908 0.013207104057073593" pbc="T T T"
Li       2.17643467       2.72075903      -1.38884679      -0.00871077      -0.00612372      -0.02376449
Li       3.08725577       2.13831581       1.34108969      -0.00686883       0.00504297      -0.02051812
Li       3.89062765       1.56048649       3.75596613       0.00221619       0.00687765       0.00423343
Li       1.27168999       0.62606898       3.26054134      -0.00518833       0.00538890      -0.01993377
Li       0.39715636       4.16827408       0.62932979       0.00864263       0.00535112       0.02353052
Li       2.43249583      -0.00883923      -0.62157160       0.00557753      -0.00323364       0.02046523
Li      -0.51398901       4.75235708      -2.10068006       0.00813597      -0.00837375       0.02154472
Li       3.04253990       5.00657287       1.19974520      -0.00270470      -0.00556532      -0.00611538
Ga       1.25892799       3.28476055       3.21392721       0.00008671      -0.00053685       0.00111518
Sn       0.40042172       1.42748354       0.64083228      -0.00533238       0.00697238      -0.01457565
Sn       2.17345924       5.46118089      -1.39984268       0.00414600      -0.00579975       0.01401827
10
Lattice="3.0118392996035444 -0.003035823415861579 0.00461802163239548 0.0074505130826905235 7.913907933740281 0.0020544112763951463 -0.012731851662530843 -0.00183227529884681 7.907033372153279" Properties=species:S:1:pos:R:3:forces:R:3 structure_index=3 total_energy=-28.908666610717773 stress="-0.01741589419543743 -0.001429738593287766 -0.002095516538247466 -0.0014297139132395387 0.011150166392326355 0.00018360346439294517 -0.0020954867359250784 0.0001838558237068355 0.010976526886224747" pbc="T T T"
Li       2.54393081       4.33341825       1.26938851      -0.00172348      -0.02915496      -0.02855990
Li       2.54054618       7.15445743       4.08978617       0.00053294       0.02976225       0.02928808
Li       2.54072509       0.37572855       0.13219699       0.00023200      -0.03075034       0.03166402
Li       2.53504355       3.19874650       5.22400136       0.00099061       0.02793539      -0.02930651
Ga       1.03369635       4.81806793       3.60497624       0.00020813       0.00413733      -0.00502951
Ga       1.03789211       6.67458361       1.74869114       0.00132950      -0.00635301       0.00629372
Ga       1.02625724       0.85924214       5.70160088       0.00028266       0.00774751       0.00283724
Ga       1.02558968       2.71390675       7.55967133       0.00003213      -0.00425809      -0.00639368
Sn       1.03025336       5.74329326       6.63142847      -0.00070286       0.00117657      -0.00085177
Sn       1.03334351       1.78866291       2.67660100      -0.00118168      -0.00024267       0.00005829
12
Lattice="4.628949688723846 -0.0010849832834988872 0.000151114562251115 0.0018121200267736102 6.426068837126124 0.007428324153183367 -0.0040044535939303015 -0.0007381282128382952 8.599869697131941" Properties=species:S:1:pos:R:3:forces:R:3 structure_index=4 total_energy=-36.816959381103516 stress="-0.022465504705905914 -0.00012523261830210686 -5.112612052471377e-05 -0.00012519916344899684 -0.022503865882754326 0.0003955381107516587 -5.099063128000125e-05 0.0003955253050662577 -0.028026066720485687" pbc="T T T"
Li       1.10799152       1.02273135       4.21418330      -0.00032621      -0.00246411       0.01265405
Li       1.10668366       4.24186042       5.15586839       0.00014088      -0.00979488      -0.01853331
Li       3.42244356       1.00424789       0.84558584       0.00015683       0.00152360      -0.01256840
Li       3.42042691       4.21022946       8.51144803       0.00002232       0.00951212       0.01803577
Ga       1.10625834       2.40589103       7.61681684       0.00025743       0.04755731       0.00648847
Ga       3.42098884       6.04639761       6.05072320      -0.00008730      -0.04871531      -0.00835243
Ga       3.42302553       2.83771237       3.31706704       0.00008503      -0.04881865       0.00427027
Ga       1.10905688       5.61458965       1.74951674      -0.00008729       0.04978206      -0.00155546
Sn       3.42336593       5.63542018       3.29426193       0.00029572       0.01922535      -0.00038011
Sn       1.10630202       6.03447298       7.59426811       0.00015002      -0.02129368       0.00175828
Sn       1.10869224       2.81713635       1.77357527      -0.00020648      -0.01942907      -0.00244000
Sn       3.42101271       2.41717666       6.07221945      -0.00040092       0.02291524       0.00062283
12
Lattice="4.567290750535768 0.0020207262291692175 -0.00012666617563946396 -2.285274837928704 3.9544873451477356 -0.00033740900048153787 0.000794037302799897 0.001591855348601416 14.828055580792647" Properties=species:S:1:pos:R:3:forces:R:3 structure_index=5 total_energy=-37.05217361450195 stress="3.656584885902703e-05 -8.332677680300549e-06 -8.015043022169266e-06 -8.43526595417643e-06 3.418423511902802e-05 -3.2342957183573162e-06 -8.123498446366284e-06 -3.123737087662448e-06 -0.00023684253392275423" pbc="T T T"
Li       0.73644891       3.52467599       4.29950681       0.00010467      -0.00008758       0.04670158
Li       0.73763681       3.52429551       7.88028836      -0.00022125       0.00013352       0.01176719
Li       0.73605978       3.52395087       0.54269790       0.00000164       0.00002236      -0.01500798
Li       0.73662982       3.52534434      11.67327582       0.00012191      -0.00008187      -0.00437626
Ga       0.73718083       0.88708733       1.39074737       0.00002147      -0.00000369      -0.00309647
Ga       0.73782550       0.88766850       6.11161479       0.00000772      -0.00001475       0.00163800
Ga       3.02092489       2.20787228      12.49637698       0.00007860      -0.00003987      -0.00718146
Ga       0.73848264       0.88754870       8.75948337      -0.00014051       0.00008289      -0.00319225
Sn       3.02030124       2.20670829       2.24923544       0.00002860      -0.00000355      -0.00555878
Sn       3.02154094       2.20719512       9.67184374      -0.00011672       0.00007136      -0.00418566
Sn       3.02078951       2.20716766       5.23785898       0.00004930      -0.00004174      -0.00962813
Sn       0.73785945       0.88843805      13.39717577       0.00006456      -0.00003707      -0.00787974
8
Lattice="4.733665025509782 0.0014563047982342019 -0.001399589433170439 -0.0008400666876361643 5.0170778264553215 -2.886362815283498 0.0012429458719455519 -0.007310101639002956 5.789571443840887" Properties=species:S:1:pos:R:3:forces:R:3 structure_index=6 total_energy=-20.485000610351562 stress="0.02617356926202774 0.0014703568303957582 0.0006387637695297599 0.0014703265624120831 0.03791441768407822 -0.004231113474816084 0.0006386733148247004 -0.004231177270412445 0.045564163476228714" pbc="T T T"
Li       4.58965228       3.88614612       0.46921213      -0.00137197       0.03343356      -0.00107581
Li       2.22047808       0.41837926       0.46500268       0.00208210       0.02666922       0.00054355
Li       2.22128582       3.00663248       1.96789648       0.00171002      -0.01259285      -0.02666644
Li       2.22214671       3.01111066      -1.02664434      -0.00090229      -0.01266128       0.02515340
Li       4.58986543       1.27118133       4.74603087      -0.00044771      -0.01590435      -0.02817312
Li       4.58873633       1.27601053       1.96875570      -0.00057289      -0.01858440       0.03288307
Ga       2.22310585       0.47039556       3.36150455      -0.00039651       0.00005704      -0.00346728
Sn       4.58863653       3.81444094       3.36359788      -0.00010076      -0.00041696       0.00080266
20
Lattice="5.930382659907078 -0.014437495816940827 0.032052007338703954 0.019405085849521875 6.89065368957125 -1.914964164974048 -0.005245196912909727 -0.08151540464848957 8.904661558139704" Properties=species:S:1:pos:R:3:forces:R:3 structure_index=7 total_energy=-57.27071762084961 stress="-0.013097553513944149 -0.0005274107679724693 -0.00042015855433419347 -0.0005274896393530071 -0.009264872409403324 0.002210057806223631 -0.00042021938133984804 0.0022099523339420557 -0.0066601852886378765" pbc="T T T"
Li       2.24267697       2.94928801       1.21269158       0.00265590      -0.03499172      -0.01227917
Li       5.15395900       5.80714193       2.32035686      -0.00160115      -0.01220455      -0.03843230
Li       2.25394245       5.88899430       2.39053297       0.01514263       0.03133277      -0.01682203
Li       5.15304507       3.04232883       1.33220917       0.00021853      -0.01577124       0.00679600
Li       5.15623743       1.70604018       5.38788184       0.01202535      -0.00168095       0.04594954
Li       2.21447792       4.51079046       6.25233621      -0.00534615       0.03082679       0.00431252
Ga       0.79267865       3.89734147       3.70224957       0.00489722       0.00486509       0.00819603
Ga       3.66700524       5.20740826      -0.05258268      -0.01414344      -0.00843635      -0.00599666
Ga       3.64470300       3.73908449       3.68652019      -0.00537729       0.00027914       0.01101753
Ga       0.78489831       6.62157259       4.72625710       0.00274706      -0.01282059      -0.01377176
Ga       2.25735802       1.85986163       5.36788191      -0.01090368       0.01506694      -0.01133550
Ga       5.12981539       0.39039311       0.27184292      -0.00706885       0.03154591       0.00152800
Ga       2.22094088       0.24375746       0.23756924      -0.01196058       0.00657775       0.01236299
Ga       0.78284391       2.28372986       7.78766343      -0.01901714       0.01728613      -0.00141736
Ga       0.78179620       5.07461555      -0.11237352       0.01666403      -0.01868334       0.01114113
Ga       3.67871261       1.02385909       2.83688148       0.00967131      -0.00382169      -0.00791610
Ga       3.63633572       2.31195185       7.80359694       0.02348708       0.02084930      -0.00042210
Ga       3.65976703       6.58414133       4.73353878       0.00059777      -0.01637218       0.00866986
Sn       5.17036088       4.45622796       6.26711196       0.00820758      -0.04157573      -0.02487717
Sn       0.72249467       1.02957466       2.82255541      -0.02089623       0.00772853       0.02329661
6
Lattice="3.2334308229998996 0.000331273557997498 0.010395754989252815 -0.00045660126798842323 4.044161379798607 -0.0005655009971060689 -0.035240803898716797 0.0013380409085234821 9.390849303171693" Properties=species:S:1:pos:R:3:forces:R:3 structure_index=8 total_energy=-18.41210174560547 stress="0.023523692041635513 -0.00022030276886653155 -0.001239508274011314 -0.00022028849343769252 0.0314023531973362 -0.00029732397524639964 -0.0012393564684316516 -0.0002973567752633244 0.01999150589108467" pbc="T T T"
Li       2.54815725       2.34969893       6.02726599       0.00097778      -0.00044735       0.02347088
Li       2.53387512       2.34990464       9.12304595       0.00231879      -0.00094529       0.00629309
Ga       2.57123733       2.34962377       2.60093575      -0.00213041      -0.00193487      -0.03773811
Ga       0.95398096       0.32593269       1.22326676      -0.00078503       0.00173816       0.00358020
Sn       0.92243366       0.32704447       7.64424576       0.00122036       0.00110144      -0.01116167
Sn       0.94682333       0.32738569       4.24484349      -0.00160151       0.00048789       0.01555559
14
Lattice="5.159492242053 0.028858800924107437 -0.8432056795213161 -0.9399896461461158 5.022120561501645 -0.8695734264189068 0.030332263923851296 -0.01948987064888648 10.99786537081956" Properties=species:S:1:pos:R:3:forces:R:3 structure_index=9 total_energy=-42.42755889892578 stress="0.005472538061439991 -0.000770324666518718 0.0004700809367932379 -0.0007702283910475671 0.003429193515330553 0.0019892179407179356 0.00047013588482514024 0.001989243319258094 0.004438289441168308" pbc="T T T"
Li       0.72185810       4.50009936       5.27946000      -0.02097175       0.01142440      -0.00115627
Li       0.25473895       3.21136071       2.45926230       0.00108602       0.00644436       0.00383669
Li       2.11180596       1.02929208       8.86203338      -0.00181939       0.00799325      -0.01461528
Li      -0.22484055       1.86671740      10.67793015       0.00499713       0.00126379       0.00675858
Ga       0.27829727       3.17225348       7.96315255       0.00833844       0.00023913      -0.00055297
Ga       4.57311663       0.37016665       1.57854796      -0.00090121      -0.02000205       0.00586052
Ga      -0.16562959       1.77915809       5.08753097       0.00232364       0.01521059      -0.00364152
Ga       0.66307798       4.60342286      -0.20189806       0.01085406      -0.02394829       0.00217968
Ga       4.65639046       0.37404939       7.10051249       0.00880954      -0.01092657       0.00989686
Ga       2.01987891       1.02205428       3.36753794       0.00238859       0.01972470      -0.01936000
Sn       2.57162797       2.33952093       0.64078484      -0.01452873      -0.00591912       0.02814879
Sn       3.07461903       4.05266842       3.43562917      -0.00061407       0.01702943      -0.01364056
Sn       3.09617437       4.06795082       8.89409077      -0.00551159      -0.00900994       0.01139753
Sn       2.62890861       2.32062505       6.16025346       0.00554934      -0.00952367      -0.01511207
4
Lattice="4.438547051326928 0.0024773476949068044 -0.00024591121367369134 -0.0018692798191576238 4.05935424666552 -0.006851789701869471 0.00027271738644004946 0.005864505740824321 4.059315401316701" Properties=species:S:1:pos:R:3:forces:R:3 structure_index=10 total_energy=-11.80027961730957 stress="0.004964747931808233 0.0013157428475096822 0.00017749455582816154 0.0013156572822481394 0.057276807725429535 -0.009165595285594463 0.00017742255295161158 -0.009165615774691105 0.057129234075546265" pbc="T T T"
Li       3.80685617       2.32206467       2.20687637       0.00038868      -0.00028442       0.00001557
Li       3.80762092       0.28936612       0.18065443       0.00045546      -0.00011561      -0.00001282
Ga       1.58873676       0.29085989       2.21041989      -0.00029270       0.00025454       0.00003048
Sn       1.58761898       2.31763626       0.17734570      -0.00055144       0.00014549      -0.00003322
5
Lattice="3.8252667962789864 0.0019119688459308054 -1.3062891858048429 -0.44719428842476705 3.7952147241083938 -1.304024779644797 0.18068989796837265 0.1961868626407404 6.78041323867592" Properties=species:S:1:pos:R:3:forces:R:3 structure_index=11 total_energy=-14.727411270141602 stress="-0.04288757964968681 0.001316897920332849 0.006197001785039902 0.0013167225988581777 -0.041418660432100296 0.0025929363910108805 0.006196986418217421 0.002592948032543063 -0.0298332367092371" pbc="T T T"
Li       0.02844285       1.61625255       5.23993042      -0.00322700       0.00049251      -0.00166438
Ga       2.30496466       2.03735313      -0.59384792       0.01079206       0.00778400       0.02864570
Ga       3.08003611       2.90007725       1.67748698      -0.00642574      -0.00684614      -0.02297631
Ga       1.71537531       3.51517398       3.93270438      -0.00120032      -0.00110725      -0.00321675
Sn       1.00353043       0.57038422       1.84821416       0.00006100      -0.00032311      -0.00078829
20
Lattice="5.664477638618881 0.05831678851608318 -0.9457012474899245 0.16216785848492046 5.664518381022484 0.9312495786654623 0.33087965669594605 -0.3105205525620357 10.580695940255506" Properties=species:S:1:pos:R:3:forces:R:3 structure_index=12 total_energy=-56.58076477050781 stress="-0.011984954588115215 -0.00010559487418504432 -0.0008629272342659533 -0.00010573305189609528 -0.012340295128524303 0.0012495265109464526 -0.0008628959185443819 0.001249578781425953 -0.01715068705379963" pbc="T T T"
Li       2.71201392       0.14163026       8.48632633      -0.00301486      -0.01792621       0.00229543
Li       3.19990714       5.49433764       2.59658777      -0.00389530      -0.00479289       0.01245585
Li       3.91980250       4.76428485       6.87920994      -0.00689229       0.00642959      -0.02399553
Li       5.66120667       3.02762202       8.47808865       0.00707140       0.01366507       0.00556716
Li       0.27885482       2.62733576       2.60321036       0.00849498       0.00184178       0.01030031
Li       0.36595099       5.45963475       3.11361249       0.00315066      -0.00093301      -0.01411502
Li       3.13480347       2.64077663       2.21258942      -0.00653864       0.00308808       0.00274875
Li       1.07516075       4.74755535       7.28948011       0.00210355       0.00193613      -0.00005659
Li       1.00559241       1.90708298       6.88291048      -0.00263419       0.00031721      -0.01804251
Ga       2.79356789       3.00333213       8.85606794      -0.00034409       0.00650988       0.03412430
Ga       2.10354430       3.68971143       4.77998540       0.03742345      -0.01786627       0.00582827
Ga       4.24944948       4.41024389       0.22720328      -0.00852069       0.00533556      -0.03345039
Ga       1.34095055       1.55258227       0.23570077      -0.00579630       0.00557969      -0.02912258
Ga       4.16972462       1.58061327      -0.23286733      -0.00224810       0.00092478      -0.00079297
Ga       4.86230609       0.88672221       3.84615815      -0.03170017       0.02165126       0.02048366
Ga       1.42508451       4.37706666       0.72999087       0.00185932      -0.00142220      -0.01249340
Ga       3.86311813       1.90908128       6.55335386      -0.00848212       0.00612532      -0.04126311
Ga       5.54864109       0.19680196       7.91890191       0.01034364      -0.01528277       0.02692682
Sn       4.93493263       3.72386744       4.28570670      -0.01765844      -0.01709338       0.02850390
Sn       2.02313570       0.86274455       4.29323937       0.02727814       0.00191242       0.02409762
4
Lattice="4.270785972849131 0.0008135395961455231 -0.0018773914733502609 -0.001934392680373231 4.271588694275172 -0.00039384170160949107 0.001332653514115369 0.0002786218084027589 4.360596122463368" Properties=species:S:1:pos:R:3:forces:R:3 structure_index=13 total_energy=-12.158609390258789 stress="-0.09112899750471115 -0.003400214249268174 -0.0028609484434127808 -0.0034002065658569336 -0.08534709364175797 -0.0006083518965169787 -0.0028611081652343273 -0.0006083982298150659 -0.046157047152519226" pbc="T T T"
Li       1.49370141       0.29945386       2.03978851       0.00091466      -0.00102187       0.00004703
Ga       3.63020579       0.29937514       4.21968119      -0.00006298      -0.00000278       0.00055266
Ga       1.49415942       2.43511990       4.22009729      -0.00042987      -0.00003974       0.00137826
Sn       3.62870016       2.43492505       2.03975549      -0.00042181       0.00106440      -0.00197794
4
Lattice="4.05704069335675 0.0009501705853342808 0.0021080299633568908 -0.0010511267418043535 4.056935980963494 0.000690047304977223 -0.0024956278806057617 -0.0008185688194537031 4.448280318710947" Properties=species:S:1:pos:R:3:forces:R:3 structure_index=14 total_energy=-11.800251007080078 stress="0.05197645723819733 -0.0009366095764562488 -0.0005954173975624144 -0.0009365970618091524 0.051435794681310654 -0.00019614618213381618 -0.0005954295047558844 -0.00019607994181569666 0.10682836920022964" pbc="T T T"
Li       3.06741648       3.10939903       2.17826747      -0.00013489       0.00019643      -0.00141487
Li       1.03952497       1.08053949       2.17682873      -0.00024086       0.00004837      -0.00133863
Ga       3.06673449       1.08062447       4.40182440      -0.00086450       0.00028737       0.00022011
Sn       1.03740038       3.10872738       4.40048846       0.00124025      -0.00053218       0.00253340
20
Lattice="4.325683888710705 0.004256163390209721 0.5107277317840003 2.203987357176309 4.854126368271515 -0.13252742487719046 -0.19401997391153142 -3.2590835707255046 20.239952533936307" Properties=species:S:1:pos:R:3:forces:R:3 structure_index=15 total_energy=-61.85270309448242 stress="0.014499732293188572 -0.0003767213493119925 -0.0008187336497940123 -0.00037664739647880197 0.014202574267983437 0.0010437227319926023 -0.0008189611253328621 0.0010436943266540766 0.016687685623764992" pbc="T T T"
Li       1.48738108       1.60009947       6.97414403      -0.00564375       0.00637596       0.04669924
Li       3.18366824      -1.01424996      11.29951721      -0.00362109       0.01202214      -0.01142976
Li       1.85410585       2.26646106       3.86305045       0.00039697       0.01213593       0.00308653
Li       2.74907783       1.23744003      14.89406986       0.00454944      -0.02024741      -0.02908032
Li       4.25311967       1.20996880       2.17984049      -0.00946343       0.02180453       0.05026076
Li       3.43390832       2.69853884       9.08848402      -0.00193892       0.00926742       0.01786926
Ga       5.12850813       0.11947348      13.35882476       0.00267710      -0.02379657      -0.02222757
Ga       3.78181918       3.39123057       6.08202890       0.00298907      -0.00302777       0.00213461
Ga       4.77592666      -0.65011015      16.31785200       0.00687415      -0.02270149      -0.04125130
Ga       2.20492110       3.07073593       0.90806709       0.00227862       0.00987729      -0.00356686
Ga       3.09641031       1.98597979      11.98637764      -0.00285603       0.01256258      -0.00280862
Ga       2.48824960      -2.50692901      17.11582657       0.00252152      -0.01043369       0.00544957
Ga       4.41444771      -1.31812669      19.39128216      -0.00102598      -0.00338712      -0.00581355
Sn       2.83883337      -1.74618196      14.18301242      -0.00011380      -0.01853765      -0.00879157
Sn       2.10645666      -3.12543869      20.38558564      -0.00192923       0.00790598       0.00521059
Sn       4.14047036       4.08739913       3.07098614      -0.00364459       0.01733495       0.01201004
Sn       2.39736516       0.47728945      17.88234009       0.00233446      -0.01307034      -0.02024729
Sn       3.87469602       0.50929473       5.32253155       0.00425203       0.00373471      -0.00115504
Sn       1.13865443       0.87548912       9.98170952       0.00228985       0.00723844       0.01073158
Sn       3.53170070      -0.35864761       8.26589012      -0.00092642      -0.00505789      -0.00708023
8
Lattice="4.772475076902096 0.0035858695779425786 -0.0006313515956525396 -0.003996765538183972 5.009079917440329 0.0018109290449320507 0.0009709107496189516 -2.7078545408841192e-05 6.071307034340934" Properties=species:S:1:pos:R:3:forces:R:3 structure_index=16 total_energy=-23.55739974975586 stress="0.024654380977153778 -0.000708435254637152 0.00017095936345867813 -0.000708354520611465 -0.042101360857486725 0.0003511629474814981 0.00017107823805417866 0.00035111105535179377 -0.005076308269053698" pbc="T T T"
Li       4.19938080       0.34598262       3.26455062       0.00000792       0.03700688       0.00430292
Li       1.81195621       2.09886662       0.23191956      -0.00017996      -0.04536029       0.00184935
Li       4.19906097       0.34182865       0.21362751      -0.00041871       0.04461429      -0.00421342
Li       1.81276544       2.09457483       3.25089859      -0.00085772      -0.03762564      -0.00354468
Ga       4.19765643       2.80701235       1.74121992      -0.00016803       0.02074173      -0.00064657
Ga       1.80968554       4.64128600       4.77592065       0.00139973      -0.01807534       0.00195795
Sn       1.80938323       4.62353623       1.74131325       0.00105225      -0.00078039       0.00066714
Sn       4.19835222       2.82623842       4.77616170      -0.00083546      -0.00052127      -0.00037269
12
Lattice="4.349856165215305 -0.0008073589617551175 0.002969623882959727 0.0010560665898431778 6.052866265252103 -0.006000532508689237 -0.006503224981966197 -0.1069221746557695 9.059115461865824" Properties=species:S:1:pos:R:3:forces:R:3 structure_index=17 total_energy=-36.56503677368164 stress="0.00957619957625866 2.9648062991327606e-05 -2.4814244170556776e-05 2.9698267098865472e-05 0.016964871436357498 0.0007168423035182059 -2.4881182980607264e-05 0.0007167171570472419 0.01248428225517273" pbc="T T T"
Li       1.31879666       2.18061827       1.03392555      -0.00044659       0.00368989      -0.00802169
Li       1.31654119       5.16535002       3.92106660       0.00018754       0.03960642       0.02294372
Li       1.31472163       4.95120048       7.12767731      -0.00031263      -0.00987941       0.02293758
Li       3.49048436       3.52388447       5.58064532      -0.00032668       0.01976854      -0.01189673
Li       3.48786675       0.49586943       8.54920547      -0.00028720      -0.04297096       0.00994859
Ga       3.49262382       3.73672788       2.45268205      -0.00014021       0.01845934      -0.02904719
Ga       1.31397465       1.89878203       7.05999130       0.00032336      -0.02601269      -0.03223843
Ga       3.49158890       0.74261016       2.59404053       0.00071114       0.01796356       0.00875797
Sn       1.31888971       5.31653896       1.05094689       0.00000584      -0.04748359      -0.01419502
Sn       1.31612792       2.24851262       4.04578234       0.00011802      -0.01655608       0.00725168
Sn       3.48821121       3.40912272       8.50549153       0.00031494       0.01526001      -0.01415287
Sn       3.48972828       0.40038328       5.59466820      -0.00014755       0.02815496       0.03771242
9
Lattice="4.536335552648537 0.014731529203893052 1.3458462298631044 2.1184830358179263 5.109645348163021 1.1303956149420922 0.25622071833265525 -0.7366633484574904 7.418052430123647" Properties=species:S:1:pos:R:3:forces:R:3 structure_index=18 total_energy=-26.86185073852539 stress="0.01417894009500742 0.001040949602611363 0.0022534658201038837 0.0010410469258204103 0.0007899137563072145 -0.0031720141414552927 0.0022534120362251997 -0.003171993652358651 0.006534283980727196" pbc="T T T"
Li       2.01092481      -0.37304472       6.16600653      -0.00001141      -0.00006007      -0.00006633
Li       1.06134137       1.95183379       1.08224450      -0.00314844      -0.04273712       0.00422498
Li       4.82279314       3.14823604       4.96202677       0.00307934       0.04268908      -0.00410266
Ga       3.15334938       3.66674784       2.33317586      -0.00241321      -0.01845608      -0.00210385
Ga       2.73071744       1.43325007       3.71121671       0.00241178       0.01848926       0.00201417
Ga       2.02466366       2.65855669       6.09025815       0.00513892       0.00263053      -0.01685066
Ga       4.11561917       1.70487206       7.37216149      -0.00511178      -0.00269409       0.01679358
Sn       3.47559912      -0.02737409       1.27821078      -0.01082511      -0.00612553       0.03015480
Sn       0.28999855       0.01773916       3.63569496       0.01087992       0.00626401      -0.03006402
8