# Thermal properties / unit cell (natom)

unit:
  temperature:   K
  free_energy:   kJ/mol
  entropy:       J/K/mol
  heat_capacity: J/K/mol

natom: 4    
cutoff_frequency: 0.00000
num_modes: 187500
num_integrated_modes: 146958

zero_point_energy:       3.6601564

thermal_properties:
- temperature:         0.0000000
  free_energy:         3.6601564
  entropy:             0.0000000
  heat_capacity:       0.0000000
  energy:              3.6601564

- temperature:        10.0000000
  free_energy:         3.6535047
  entropy:             2.3282860
  heat_capacity:       6.1122290
  energy:              3.6767876

- temperature:        20.0000000
  free_energy:         3.5880024
  entropy:            11.6662876
  heat_capacity:      23.1228843
  energy:              3.8213281

- temperature:        30.0000000
  free_energy:         3.4101338
  entropy:            24.1303884
  heat_capacity:      38.7993806
  energy:              4.1340455

- temperature:        40.0000000
  free_energy:         3.1043589
  entropy:            36.9576650
  heat_capacity:      50.2015942
  energy:              4.5826655

- temperature:        50.0000000
  free_energy:         2.6735502
  entropy:            49.0393399
  heat_capacity:      57.8485752
  energy:              5.1255172

- temperature:        60.0000000
  free_energy:         2.1271117
  entropy:            60.0684825
  heat_capacity:      62.9577926
  energy:              5.7312206

- temperature:        70.0000000
  free_energy:         1.4756748
  entropy:            70.0521170
  heat_capacity:      66.4504356
  energy:              6.3793230

- temperature:        80.0000000
  free_energy:         0.7292065
  entropy:            79.0950151
  heat_capacity:      68.9092068
  energy:              7.0568077

- temperature:        90.0000000
  free_energy:        -0.1034990
  entropy:            87.3196020
  heat_capacity:      70.6910060
  energy:              7.7552652

- temperature:       100.0000000
  free_energy:        -1.0148386
  entropy:            94.8395486
  heat_capacity:      72.0167444
  energy:              8.4691163

- temperature:       110.0000000
  free_energy:        -1.9982698
  entropy:           101.7529257
  heat_capacity:      73.0264822
  energy:              9.1945520

- temperature:       120.0000000
  free_energy:        -3.0481513
  entropy:           108.1420944
  heat_capacity:      73.8114848
  energy:              9.9289001

- temperature:       130.0000000
  free_energy:        -4.1595942
  entropy:           114.0756349
  heat_capacity:      74.4328513
  energy:             10.6702383

- temperature:       140.0000000
  free_energy:        -5.3283365
  entropy:           119.6106383
  heat_capacity:      74.9325329
  energy:             11.4171528

- temperature:       150.0000000
  free_energy:        -6.5506384
  entropy:           124.7948060
  heat_capacity:      75.3400087
  energy:             12.1685825

- temperature:       160.0000000
  free_energy:        -7.8231975
  entropy:           129.6682141
  heat_capacity:      75.6764332
  energy:             12.9237168

- temperature:       170.0000000
  free_energy:        -9.1430803
  entropy:           134.2647450
  heat_capacity:      75.9572783
  energy:             13.6819264

- temperature:       180.0000000
  free_energy:       -10.5076660
  entropy:           138.6132322
  heat_capacity:      76.1940555
  energy:             14.4427158

- temperature:       190.0000000
  free_energy:       -11.9146008
  entropy:           142.7383717
  heat_capacity:      76.3954640
  energy:             15.2056898

- temperature:       200.0000000
  free_energy:       -13.3617602
  entropy:           146.6614488
  heat_capacity:      76.5681710
  energy:             15.9705295

- temperature:       210.0000000
  free_energy:       -14.8472180
  entropy:           150.4009188
  heat_capacity:      76.7173525
  energy:             16.7369749

- temperature:       220.0000000
  free_energy:       -16.3692204
  entropy:           153.9728739
  heat_capacity:      76.8470741
  energy:             17.5048118

- temperature:       230.0000000
  free_energy:       -17.9261643
  entropy:           157.3914205
  heat_capacity:      76.9605637
  energy:             18.2738624

- temperature:       240.0000000
  free_energy:       -19.5165791
  entropy:           160.6689864
  heat_capacity:      77.0604096
  energy:             19.0439777

- temperature:       250.0000000
  free_energy:       -21.1391109
  entropy:           163.8165722
  heat_capacity:      77.1487058
  energy:             19.8150321

- temperature:       260.0000000
  free_energy:       -22.7925100
  entropy:           166.8439576
  heat_capacity:      77.2271613
  energy:             20.5869190

- temperature:       270.0000000
  free_energy:       -24.4756186
  entropy:           169.7598735
  heat_capacity:      77.2971809
  energy:             21.3595472

- temperature:       280.0000000
  free_energy:       -26.1873620
  entropy:           172.5721445
  heat_capacity:      77.3599285
  energy:             22.1328384

- temperature:       290.0000000
  free_energy:       -27.9267396
  entropy:           175.2878082
  heat_capacity:      77.4163745
  energy:             22.9067248

- temperature:       300.0000000
  free_energy:       -29.6928174
  entropy:           177.9132168
  heat_capacity:      77.4673330
  energy:             23.6811476

- temperature:       310.0000000
  free_energy:       -31.4847223
  entropy:           180.4541218
  heat_capacity:      77.5134912
  energy:             24.4560555

- temperature:       320.0000000
  free_energy:       -33.3016356
  entropy:           182.9157470
  heat_capacity:      77.5554321
  energy:             25.2314034

- temperature:       330.0000000
  free_energy:       -35.1427889
  entropy:           185.3028503
  heat_capacity:      77.5936533
  energy:             26.0071517

- temperature:       340.0000000
  free_energy:       -37.0074588
  entropy:           187.6197772
  heat_capacity:      77.6285809
  energy:             26.7832655

- temperature:       350.0000000
  free_energy:       -38.8949638
  entropy:           189.8705068
  heat_capacity:      77.6605822
  energy:             27.5597136

- temperature:       360.0000000
  free_energy:       -40.8046605
  entropy:           192.0586914
  heat_capacity:      77.6899744
  energy:             28.3364684

- temperature:       370.0000000
  free_energy:       -42.7359404
  entropy:           194.1876910
  heat_capacity:      77.7170332
  energy:             29.1135053

- temperature:       380.0000000
  free_energy:       -44.6882273
  entropy:           196.2606039
  heat_capacity:      77.7419988
  energy:             29.8908021

- temperature:       390.0000000
  free_energy:       -46.6609750
  entropy:           198.2802925
  heat_capacity:      77.7650813
  energy:             30.6683390

- temperature:       400.0000000
  free_energy:       -48.6536646
  entropy:           200.2494068
  heat_capacity:      77.7864651
  energy:             31.4460981

- temperature:       410.0000000
  free_energy:       -50.6658028
  entropy:           202.1704049
  heat_capacity:      77.8063127
  energy:             32.2240632

- temperature:       420.0000000
  free_energy:       -52.6969200
  entropy:           204.0455707
  heat_capacity:      77.8247677
  energy:             33.0022197

- temperature:       430.0000000
  free_energy:       -54.7465686
  entropy:           205.8770300
  heat_capacity:      77.8419570
  energy:             33.7805543

- temperature:       440.0000000
  free_energy:       -56.8143215
  entropy:           207.6667648
  heat_capacity:      77.8579938
  energy:             34.5590550

- temperature:       450.0000000
  free_energy:       -58.8997710
  entropy:           209.4166259
  heat_capacity:      77.8729787
  energy:             35.3377107

- temperature:       460.0000000
  free_energy:       -61.0025269
  entropy:           211.1283441
  heat_capacity:      77.8870016
  energy:             36.1165114

- temperature:       470.0000000
  free_energy:       -63.1222161
  entropy:           212.8035402
  heat_capacity:      77.9001430
  energy:             36.8954478

- temperature:       480.0000000
  free_energy:       -65.2584810
  entropy:           214.4437345
  heat_capacity:      77.9124752
  energy:             37.6745115

- temperature:       490.0000000
  free_energy:       -67.4109789
  entropy:           216.0503545
  heat_capacity:      77.9240632
  energy:             38.4536948

- temperature:       500.0000000
  free_energy:       -69.5793807
  entropy:           217.6247424
  heat_capacity:      77.9349658
  energy:             39.2329905

- temperature:       510.0000000
  free_energy:       -71.7633705
  entropy:           219.1681619
  heat_capacity:      77.9452357
  energy:             40.0123920

- temperature:       520.0000000
  free_energy:       -73.9626447
  entropy:           220.6818038
  heat_capacity:      77.9549211
  energy:             40.7918933

- temperature:       530.0000000
  free_energy:       -76.1769111
  entropy:           222.1667920
  heat_capacity:      77.9640654
  energy:             41.5714887

- temperature:       540.0000000
  free_energy:       -78.4058886
  entropy:           223.6241879
  heat_capacity:      77.9727082
  energy:             42.3511729

- temperature:       550.0000000
  free_energy:       -80.6493062
  entropy:           225.0549954
  heat_capacity:      77.9808854
  energy:             43.1309413

- temperature:       560.0000000
  free_energy:       -82.9069030
  entropy:           226.4601646
  heat_capacity:      77.9886298
  energy:             43.9107892

- temperature:       570.0000000
  free_energy:       -85.1784271
  entropy:           227.8405958
  heat_capacity:      77.9959715
  energy:             44.6907125

- temperature:       580.0000000
  free_energy:       -87.4636353
  entropy:           229.1971426
  heat_capacity:      78.0029378
  energy:             45.4707074

- temperature:       590.0000000
  free_energy:       -89.7622930
  entropy:           230.5306155
  heat_capacity:      78.0095540
  energy:             46.2507701

- temperature:       600.0000000
  free_energy:       -92.0741733
  entropy:           231.8417844
  heat_capacity:      78.0158430
  energy:             47.0308974

- temperature:       610.0000000
  free_energy:       -94.3990568
  entropy:           233.1313816
  heat_capacity:      78.0218261
  energy:             47.8110859

- temperature:       620.0000000
  free_energy:       -96.7367313
  entropy:           234.4001036
  heat_capacity:      78.0275228
  energy:             48.5913329

- temperature:       630.0000000
  free_energy:       -99.0869915
  entropy:           235.6486143
  heat_capacity:      78.0329511
  energy:             49.3716355

- temperature:       640.0000000
  free_energy:      -101.4496384
  entropy:           236.8775460
  heat_capacity:      78.0381275
  energy:             50.1519911

- temperature:       650.0000000
  free_energy:      -103.8244792
  entropy:           238.0875022
  heat_capacity:      78.0430675
  energy:             50.9323973

- temperature:       660.0000000
  free_energy:      -106.2113271
  entropy:           239.2790588
  heat_capacity:      78.0477851
  energy:             51.7128517

- temperature:       670.0000000
  free_energy:      -108.6100009
  entropy:           240.4527659
  heat_capacity:      78.0522935
  energy:             52.4933523

- temperature:       680.0000000
  free_energy:      -111.0203247
  entropy:           241.6091494
  heat_capacity:      78.0566049
  energy:             53.2738969

- temperature:       690.0000000
  free_energy:      -113.4421278
  entropy:           242.7487124
  heat_capacity:      78.0607306
  energy:             54.0544838

- temperature:       700.0000000
  free_energy:      -115.8752444
  entropy:           243.8719363
  heat_capacity:      78.0646812
  energy:             54.8351110

- temperature:       710.0000000
  free_energy:      -118.3195136
  entropy:           244.9792823
  heat_capacity:      78.0684663
  energy:             55.6157768

- temperature:       720.0000000
  free_energy:      -120.7747786
  entropy:           246.0711922
  heat_capacity:      78.0720951
  energy:             56.3964798

- temperature:       730.0000000
  free_energy:      -123.2408874
  entropy:           247.1480899
  heat_capacity:      78.0755761
  energy:             57.1772182

- temperature:       740.0000000
  free_energy:      -125.7176917
  entropy:           248.2103818
  heat_capacity:      78.0789172
  energy:             57.9579908

- temperature:       750.0000000
  free_energy:      -128.2050476
  entropy:           249.2584584
  heat_capacity:      78.0821257
  energy:             58.7387961

- temperature:       760.0000000
  free_energy:      -130.7028148
  entropy:           250.2926943
  heat_capacity:      78.0852087
  energy:             59.5196329

- temperature:       770.0000000
  free_energy:      -133.2108566
  entropy:           251.3134500
  heat_capacity:      78.0881725
  energy:             60.3004999

- temperature:       780.0000000
  free_energy:      -135.7290400
  entropy:           252.3210718
  heat_capacity:      78.0910233
  energy:             61.0813960

- temperature:       790.0000000
  free_energy:      -138.2572354
  entropy:           253.3158929
  heat_capacity:      78.0937666
  energy:             61.8623200

- temperature:       800.0000000
  free_energy:      -140.7953163
  entropy:           254.2982341
  heat_capacity:      78.0964079
  energy:             62.6432710

- temperature:       810.0000000
  free_energy:      -143.3431595
  entropy:           255.2684041
  heat_capacity:      78.0989522
  energy:             63.4242479

- temperature:       820.0000000
  free_energy:      -145.9006448
  entropy:           256.2267006
  heat_capacity:      78.1014040
  energy:             64.2052497

- temperature:       830.0000000
  free_energy:      -148.4676549
  entropy:           257.1734102
  heat_capacity:      78.1037679
  energy:             64.9862756

- temperature:       840.0000000
  free_energy:      -151.0440753
  entropy:           258.1088096
  heat_capacity:      78.1060480
  energy:             65.7673248

- temperature:       850.0000000
  free_energy:      -153.6297942
  entropy:           259.0331654
  heat_capacity:      78.1082482
  energy:             66.5483963

- temperature:       860.0000000
  free_energy:      -156.2247026
  entropy:           259.9467350
  heat_capacity:      78.1103722
  energy:             67.3294895

- temperature:       870.0000000
  free_energy:      -158.8286938
  entropy:           260.8497671
  heat_capacity:      78.1124235
  energy:             68.1106035

- temperature:       880.0000000
  free_energy:      -161.4416636
  entropy:           261.7425016
  heat_capacity:      78.1144053
  energy:             68.8917377

- temperature:       890.0000000
  free_energy:      -164.0635103
  entropy:           262.6251705
  heat_capacity:      78.1163208
  energy:             69.6728914

- temperature:       900.0000000
  free_energy:      -166.6941343
  entropy:           263.4979980
  heat_capacity:      78.1181729
  energy:             70.4540639

- temperature:       910.0000000
  free_energy:      -169.3334382
  entropy:           264.3612009
  heat_capacity:      78.1199643
  energy:             71.2352547

- temperature:       920.0000000
  free_energy:      -171.9813269
  entropy:           265.2149890
  heat_capacity:      78.1216977
  energy:             72.0164630

- temperature:       930.0000000
  free_energy:      -174.6377073
  entropy:           266.0595653
  heat_capacity:      78.1233756
  energy:             72.7976884

- temperature:       940.0000000
  free_energy:      -177.3024881
  entropy:           266.8951261
  heat_capacity:      78.1250002
  energy:             73.5789304

- temperature:       950.0000000
  free_energy:      -179.9755804
  entropy:           267.7218617
  heat_capacity:      78.1265739
  energy:             74.3601883

- temperature:       960.0000000
  free_energy:      -182.6568966
  entropy:           268.5399565
  heat_capacity:      78.1280987
  energy:             75.1414617

- temperature:       970.0000000
  free_energy:      -185.3463513
  entropy:           269.3495891
  heat_capacity:      78.1295766
  energy:             75.9227501

- temperature:       980.0000000
  free_energy:      -188.0438607
  entropy:           270.1509324
  heat_capacity:      78.1310096
  energy:             76.7040531

- temperature:       990.0000000
  free_energy:      -190.7493429
  entropy:           270.9441546
  heat_capacity:      78.1323994
  energy:             77.4853701

- temperature:      1000.0000000
  free_energy:      -193.4627173
  entropy:           271.7294182
  heat_capacity:      78.1337478
  energy:             78.2667009
