# Tetrahedron method
       -1.8961621202        0.0000000000
       -1.8678278425        0.0000000000
       -1.8394935647        0.0000000000
       -1.8111592869        0.0000000000
       -1.7828250092        0.0000000000
       -1.7544907314        0.0000000000
       -1.7261564536        0.0000000000
       -1.6978221758        0.0000000000
       -1.6694878981        0.0000000000
       -1.6411536203        0.0000000000
       -1.6128193425        0.0000000000
       -1.5844850648        0.0000000000
       -1.5561507870        0.0000000000
       -1.5278165092        0.0000000000
       -1.4994822315        0.0000000000
       -1.4711479537        0.0000000000
       -1.4428136759        0.0000000000
       -1.4144793981        2.9347510954
       -1.3861451204        6.0710185154
       -1.3578108426        5.4233638044
       -1.3294765648        5.2810634075
       -1.3011422871        5.5152046982
       -1.2728080093        7.1141185025
       -1.2444737315        6.1210192564
       -1.2161394537        5.0957059496
       -1.1878051760        3.4408854402
       -1.1594708982        3.1003248375
       -1.1311366204        2.8125143942
       -1.1028023427        2.6981301763
       -1.0744680649        2.7862519694
       -1.0461337871        2.3343372512
       -1.0177995093        1.9405067798
       -0.9894652316        1.8163193726
       -0.9611309538        1.7127807239
       -0.9327966760        1.6348157359
       -0.9044623983        1.5689411027
       -0.8761281205        1.5082360785
       -0.8477938427        1.5385172489
       -0.8194595649        1.4712581595
       -0.7911252872        1.3481934274
       -0.7627910094        1.2594545323
       -0.7344567316        1.1545127518
       -0.7061224539        1.0710618718
       -0.6777881761        1.0188328983
       -0.6494538983        0.9781985094
       -0.6211196206        0.9654758714
       -0.5927853428        0.8748519575
       -0.5644510650        0.7849893435
       -0.5361167872        0.7292359620
       -0.5077825095        0.6668133938
       -0.4794482317        0.6209077138
       -0.4511139539        0.5908528672
       -0.4227796762        0.5503339986
       -0.3944453984        0.4841997441
       -0.3661111206        0.4299663000
       -0.3377768428        0.3931546191
       -0.3094425651        0.3589797837
       -0.2811082873        0.3312914162
       -0.2527740095        0.3084787093
       -0.2244397318        0.2958006850
       -0.1961054540        0.2892217873
       -0.1677711762        0.2809155190
       -0.1394368984        0.2733890455
       -0.1111026207        0.2617276627
       -0.0827683429        0.2526828216
       -0.0544340651        0.2467576886
       -0.0260997874        0.2422072520
        0.0022344904        0.2390110178
        0.0305687682        0.2376442693
        0.0589030460        0.2382299702
        0.0872373237        0.2378695854
        0.1155716015        0.2365428199
        0.1439058793        0.2345863701
        0.1722401570        0.2335377209
        0.2005744348        0.2343016571
        0.2289087126        0.2383403421
        0.2572429904        0.2466540480
        0.2855772681        0.2594485038
        0.3139115459        0.2749806989
        0.3422458237        0.2946537510
        0.3705801014        0.3152298172
        0.3989143792        0.3425447089
        0.4272486570        0.3717032100
        0.4555829347        0.4006918324
        0.4839172125        0.4302272415
        0.5122514903        0.4629967554
        0.5405857681        0.4953467748
        0.5689200458        0.5287960872
        0.5972543236        0.6368140758
        0.6255886014        0.9240658437
        0.6539228791        1.6810763692
        0.6822571569        3.1321809782
        0.7105914347        2.1832912711
        0.7389257125        1.4700488893
        0.7672599902        1.2192887644
        0.7955942680        1.3746177050
        0.8239285458        1.6283128646
        0.8522628235        2.0145219974
        0.8805971013        2.5931452239
        0.9089313791        3.6742401099
        0.9372656569        6.7410511763
        0.9655999346        7.6834787058
        0.9939342124        8.4111851858
        1.0222684902        7.7900208635
        1.0506027679        4.9118142770
        1.0789370457        6.1530192054
        1.1072713235        5.1715106032
        1.1356056013        4.6261632393
        1.1639398790        3.9493757450
        1.1922741568        3.5880198094
        1.2206084346        3.4803191765
        1.2489427123        3.4959431619
        1.2772769901        3.5092328156
        1.3056112679        2.8749546009
        1.3339455456        3.1452819878
        1.3622798234        2.9801600289
        1.3906141012        2.5564151550
        1.4189483790        2.4782633705
        1.4472826567        2.4411946067
        1.4756169345        2.5038936947
        1.5039512123        2.8151682019
        1.5322854900        3.8903035273
        1.5606197678        3.2014112551
        1.5889540456        2.4186294825
        1.6172883234        2.0373970121
        1.6456226011        2.1748118665
        1.6739568789        2.5484252910
        1.7022911567        2.1509894124
        1.7306254344        2.0046163734
        1.7589597122        1.8182890749
        1.7872939900        1.6634994346
        1.8156282678        1.3840513508
        1.8439625455        1.6627596325
        1.8722968233        2.2781255133
        1.9006311011        2.5688738111
        1.9289653788        4.3162716089
        1.9572996566        2.7574151026
        1.9856339344        2.4373715196
        2.0139682122        2.4532507868
        2.0423024899        2.9630894440
        2.0706367677        6.2885816315
        2.0989710455        3.9475322469
        2.1273053232        3.9553258866
        2.1556396010        3.6414455026
        2.1839738788        3.4516458743
        2.2123081565        3.4415647656
        2.2406424343        3.3320152868
        2.2689767121        3.3286699195
        2.2973109899        3.3181550852
        2.3256452676        3.3169671771
        2.3539795454        3.3697013660
        2.3823138232        3.7555485275
        2.4106481009        3.4467779433
        2.4389823787        3.2300734373
        2.4673166565        3.7044349698
        2.4956509343        3.5032662217
        2.5239852120        3.2087384195
        2.5523194898        2.5847347665
        2.5806537676        1.8850935863
        2.6089880453        3.8438607497
        2.6373223231        4.7003016632
        2.6656566009        5.5693838423
        2.6939908787        5.9485607685
        2.7223251564        5.3468451708
        2.7506594342        4.9941444271
        2.7789937120        5.4156052816
        2.8073279897        6.5598147649
        2.8356622675        7.3024766142
        2.8639965453        6.9388445919
        2.8923308231        6.7392129805
        2.9206651008        5.2630348163
        2.9489993786        4.3951329267
        2.9773336564        3.3296120970
        3.0056679341        3.8266907259
        3.0340022119        3.6067514752
        3.0623364897        3.0670087694
        3.0906707674        2.8059009593
        3.1190050452        2.4949501434
        3.1473393230        2.2735769870
        3.1756736008        2.0217124305
        3.2040078785        1.7613836608
        3.2323421563        1.5206621314
        3.2606764341        1.1116691593
        3.2890107118        0.5388479800
        3.3173449896        0.0000000000
        3.3456792674        0.0000000000
        3.3740135452        0.0000000000
        3.4023478229        0.0000000000
        3.4306821007        0.0000000000
        3.4590163785        0.0000000000
        3.4873506562        0.0000000000
        3.5156849340        0.0000000000
        3.5440192118        0.0000000000
        3.5723534896        0.0000000000
        3.6006877673        0.0000000000
        3.6290220451        0.0000000000
        3.6573563229        0.0000000000
        3.6856906006        0.0000000000
        3.7140248784        0.0000000000
        3.7423591562        0.0000000000
        3.7706934340        0.0000000000
