4
Lattice="4.276677189953215 0.0004969182211845757 -0.00020690615171350832 -0.0014755090019903565 4.276302718486898 -0.00042277718598680755 0.00012302230355776492 0.0002533202675746485 4.364071265057529" Properties=species:S:1:pos:R:3:forces:R:3 structure_index=0 total_energy=-12.158637046813965 stress="0.032499607652425766 -0.0029425660613924265 -0.0004238031688146293 -0.002942516002804041 0.02981358766555786 -0.0008639861480332911 -0.00042368852882646024 -0.0008639812003821135 0.09243624657392502" pbc="T T T"
Li       2.56272668       0.88766520       1.92163037       0.00007436      -0.00085433      -0.00063857
Ga       2.56224941       3.02517911       4.10298632      -0.00034342       0.00063839       0.00058118
Ga       0.42472690       0.88697726       4.10305972      -0.00022464       0.00012735       0.00121356
Sn       0.42358811       3.02522589       1.92125283       0.00049370       0.00008859      -0.00115617
5
Lattice="4.0305298282676825 0.0005421910064990128 -1.0102189935444883 -0.2546471173828744 4.026446892011723 -1.0136434618437675 -0.2238842945919913 -0.24284037286290075 7.66559661256564" Properties=species:S:1:pos:R:3:forces:R:3 structure_index=1 total_energy=-15.550698280334473 stress="-0.032748207449913025 0.006304913200438023 0.02337922900915146 0.006304869428277016 -0.031616032123565674 0.025320280343294144 0.023379262536764145 0.02532036229968071 0.05304659530520439" pbc="T T T"
Li       1.37274605       2.45280484       1.99753878       0.00051589       0.00022881      -0.00039079
Ga       2.33340852       1.32554916       5.83023843      -0.00023484      -0.00060952      -0.00056727
Ga       0.19023389       3.33750730       5.82539742      -0.00050485       0.00071749       0.00088134
Sn      -0.14450628       0.83156490       4.48970438       0.00980564       0.00956804       0.04009522
Sn       3.14626707       0.04792580       0.51400102      -0.00958184      -0.00990482      -0.04001851
4
Lattice="4.062989062765528 -0.0014352271005358861 0.00041800970033277344 0.001460886398806823 4.0612446661716275 0.0010808576168858778 -0.00037104998216001334 -0.0009606368128918089 4.432130439948363" Properties=species:S:1:pos:R:3:forces:R:3 structure_index=2 total_energy=-11.80021858215332 stress="0.08956176042556763 0.00024262328224722296 0.00027779670199379325 0.00024265897809527814 0.08093126118183136 0.0007138422806747258 0.0002778093912638724 0.0007137324428185821 -0.049795784056186676" pbc="T T T"
Li       2.46277260       1.77329492       4.31411454      -0.00051278      -0.00026814       0.00039904
Li       0.43148442       3.80454544       4.31450327       0.00081500      -0.00041955       0.00028589
Ga       2.46351449       3.80429191       2.09889574       0.00040619      -0.00138949      -0.00035979
Sn       0.43147015       1.77391083       2.09798768      -0.00070841       0.00207717      -0.00032514
4
Lattice="4.351174006958458 0.00027387944927646687 -0.0004847359860123591 -0.0002592040548819973 4.285878049601618 -0.00020801278712185268 0.0004964683899191121 0.00018532361484283836 4.285924788748926" Properties=species:S:1:pos:R:3:forces:R:3 structure_index=3 total_energy=-12.158601760864258 stress="0.04388965293765068 4.958880163030699e-05 0.00010754268441814929 4.951085793436505e-05 0.09197118133306503 -7.084905519150198e-05 0.00010754105460364372 -7.085984543664381e-05 0.0923037976026535" pbc="T T T"
Li       3.85865674       3.43692736       1.43375428      -0.00006603      -0.00012007      -0.00140716
Ga       1.68308655       1.29373980       1.43348810      -0.00014400       0.00022252      -0.00044896
Ga       1.68318431       3.43696740       3.57574456      -0.00008702      -0.00031999       0.00118973
Sn       3.85879287       1.29405605       3.57626965       0.00029704       0.00021755       0.00066639
5
Lattice="3.987569406912113 -0.1420341893255749 1.3019133539840702 -0.1940379174447907 3.995672474771842 1.255797010319809 -0.15519358943925252 -0.1661014176555165 6.616964134843879" Properties=species:S:1:pos:R:3:forces:R:3 structure_index=4 total_energy=-14.904141426086426 stress="0.008137189783155918 0.014049762859940529 -0.0005844765109941363 0.014049790799617767 0.012137094512581825 -0.00893424917012453 -0.0005844429833814502 -0.008934538811445236 0.03558516129851341" pbc="T T T"
Ga       0.78187040       2.44352674       2.12486661      -0.01606042       0.01655929       0.00051599
Ga       0.36797208      -0.07865971       3.12985116      -0.01313693      -0.01704984      -0.03524318
Ga       2.88424962       0.39088706       2.16035564       0.01869940      -0.01489280       0.00073316
Ga       3.14583816       2.74832716       7.77366056       0.00918981       0.01351040       0.03178149
Sn       1.75503777       1.33212419       5.45153586       0.00130817       0.00187292       0.00221253
4
Lattice="4.131504909700677 -0.000298385539595085 2.3904058419079233 1.3788895828305932 3.8955938905370755 2.3913644197638373 -0.001041625018461484 -0.00036155415174945674 4.773892997692639" Properties=species:S:1:pos:R:3:forces:R:3 structure_index=5 total_energy=-11.497217178344727 stress="0.09746255725622177 0.0003343098214827478 0.006148276850581169 0.00033475543023087084 0.09593525528907776 -0.00022808078210800886 0.006148217711597681 -0.00022794584219809622 0.10283340513706207" pbc="T T T"
Li       1.60868992       1.22097251       2.51883806      -0.00351388      -0.00144660      -0.00403551
Li       2.98432322       2.19263386       4.90494964       0.00152937       0.00206144       0.00256016
Ga       4.36323353       3.16803449       7.29622252      -0.00279638       0.00055913      -0.00157463
Sn       0.22837867       0.24690775       4.90219750       0.00478091      -0.00117389       0.00304998
4
Lattice="4.273922212952775 0.0010941967397631478 -0.0003190465958986153 -0.0026303047186954746 4.273365967936309 -0.002057462340069299 0.0002218171333809852 0.0014576028845407877 4.359078412306928" Properties=species:S:1:pos:R:3:forces:R:3 structure_index=6 total_energy=-12.158642768859863 stress="-0.05532060191035271 -0.004622047301381826 -0.0004961302620358765 -0.004621976520866156 -0.05933649465441704 -0.0031591535080224276 -0.000496089574880898 -0.003159205662086606 -0.030116861686110497" pbc="T T T"
Li       0.10284959       0.87697122       2.24214896       0.00081947       0.00000660      -0.00103714
Ga       0.10153999       3.01309094       0.06085633       0.00069632      -0.00076136       0.00116660
Ga       2.24094519       0.87603917       0.06138845      -0.00152517       0.00152337       0.00201149
Sn       2.23850146       3.01402825       2.24069007       0.00000938      -0.00076861      -0.00214095
12
Lattice="4.624157891633468 -0.0013347251544113333 0.0008965996882202295 0.003980211469798563 6.441363768489023 0.018827264757375495 -0.0017189617712900706 -0.01634602520489474 8.604841080971047" Properties=species:S:1:pos:R:3:forces:R:3 structure_index=7 total_energy=-36.81683349609375 stress="0.005841510836035013 -9.223409870173782e-05 0.00013259596016723663 -9.224006498698145e-05 0.021252937614917755 -0.0007904607919044793 0.00013252203643787652 -0.0007905166712589562 0.006038345396518707" pbc="T T T"
Li       3.63775092       4.09956216       7.65681025      -0.00031925       0.00056691       0.00042061
Li       1.32343459       0.87740437       3.33161190      -0.00021694       0.01605865       0.01133231
Li       1.32495645       4.10985393       4.28559364       0.00025334      -0.00062200      -0.00021993
Li       3.63619853       0.90845386      -0.01218403       0.00029156      -0.01609947      -0.01178572
Ga       1.32416920       2.69553810       0.88360124      -0.00015477      -0.04203818      -0.01205751
Ga       3.63699759       2.29126549       5.18424629      -0.00017567       0.04592092      -0.00335424
Ga       1.32572828       5.91716967       6.75783021       0.00017632      -0.04425567       0.00398757
Ga       3.63945222       5.53219491       2.45435418       0.00015866       0.04158410       0.00992274
Sn       1.32462343       2.27454668       6.73001496       0.00035593       0.03837561      -0.00338485
Sn       3.63590429       2.73419176       2.43413267       0.00034982      -0.04624272      -0.01656616
Sn       3.63808652       5.93454670       5.21262443      -0.00036834      -0.03901362       0.00321016
Sn       1.32773371       5.49355167       0.90326086      -0.00035067       0.04576547       0.01849506
14
Lattice="4.979037116067405 0.018163130708001338 0.017157421561855003 -2.4221414527318594 6.544755092324522 -0.6387183485087611 0.0030425572384986336 0.07549790265220203 7.661961025853931" Properties=species:S:1:pos:R:3:forces:R:3 structure_index=8 total_energy=-39.13941955566406 stress="0.023853015154600143 -0.0036581268068403006 0.005778148770332336 -0.0036580003798007965 0.02203337289392948 -0.01504215132445097 0.005778231658041477 -0.0150422602891922 -0.01876315474510193" pbc="T T T"
Li       0.26140754       5.67271524       3.79581287       0.03095532       0.01780521       0.00307492
Li       2.02087119       5.67388289       0.11267065       0.00643285      -0.00771089      -0.00912790
Li       2.85211963       4.76472676       5.04943319       0.00931502       0.01076434       0.00714676
Li       2.75324578       0.99966334       2.14547545       0.03546563      -0.00487967      -0.00133944
Li       0.30274068       1.97756183       0.97237923      -0.02335043      -0.01630322       0.01525262
Li       2.05999857       1.93307226       4.77910535      -0.01509468       0.00350566      -0.00903654
Li       0.28824362       3.86857387       6.30706712      -0.02050707       0.00336368       0.00011697
Li       4.51411566       1.02136587       5.94262524      -0.00333049       0.01282332      -0.00744301
Li       2.04726314       3.90914299       2.37891662      -0.01293400       0.00036963       0.00809411
Ga      -2.17177446       6.55441326       2.68780189       0.01436499       0.02118640      -0.01110347
Ga      -0.47149597       4.84817513       1.28850613      -0.01152490      -0.01263964      -0.00692777
Sn      -0.39189873       2.87351380       3.62946723      -0.00422779      -0.04347708      -0.01267349
Sn       1.99752101       0.06731305       7.09061993       0.00380840       0.02084843       0.02298178
Sn       2.78236307       2.92142667      -0.22500545      -0.00937282      -0.00565616       0.00098452
12
Lattice="4.103046473003537 0.0062081932626211495 -0.6583495351013073 -0.12002595643146899 4.251468086196337 -0.6979451608846836 -0.01846293487936231 -0.0489297550591219 12.984810344439198" Properties=species:S:1:pos:R:3:forces:R:3 structure_index=9 total_energy=-35.775054931640625 stress="0.01400762889534235 -0.0044256653636693954 0.0033478119876235723 -0.004425650928169489 0.004220789298415184 0.006393488496541977 0.0033479148987680674 0.006393603049218655 0.015721473842859268" pbc="T T T"
Li       0.95734005       3.69167547       2.96347794      -0.00023609       0.00202317       0.00536609
Li      -0.00146549       0.46470062      10.06617455       0.00732464       0.00446459       0.03557178
Li       3.31422740       4.01731490       4.54939765      -0.00056608       0.00128147      -0.00573374
Li       0.32890965       3.00115105      12.13863898      -0.00879962      -0.00923677      -0.04382548
Li       1.69220870       0.08968033       7.50993355      -0.00258545      -0.00259643      -0.02121940
Ga       3.07886634       1.58107421       3.04807129       0.00070260      -0.00160225       0.01054171
Ga       1.30852950       1.87465515       5.14071586       0.00232108      -0.00013249       0.00140329
Ga       2.72543459       3.39556473       0.86491963       0.00258708       0.00487253       0.01228391
Ga       0.72076027       1.25405850       1.45918989       0.00243407       0.00317556       0.02724386
Sn       1.99000172       2.59199558       9.38268744      -0.00053085       0.00374679       0.01701603
Sn       3.69321221       2.22861175       6.88893229      -0.00097626      -0.00278802      -0.01287105
Sn       2.41654342       0.85333544      12.01717597      -0.00167510      -0.00320818      -0.02577700
18
Lattice="7.3683513866731145 -0.04282722739523865 -3.6573857421893656 -2.1556504853483776 6.026147649549129 -1.4756608102197641 -0.2051987156575325 -0.16501482408930443 7.018682743461893" Properties=species:S:1:pos:R:3:forces:R:3 structure_index=10 total_energy=-50.14869689941406 stress="-0.009409933350980282 -0.0018625383963808417 0.005290601402521133 -0.0018626486416906118 0.0057235523127019405 0.0015834125224500895 0.005290603265166283 0.001583475386723876 -0.013153043575584888" pbc="T T T"
Li       3.17586656       0.46734603       3.76152587       0.00965435       0.01155847      -0.01815546
Li       2.57638178       2.55363198      -1.51605151      -0.01761274      -0.02705232      -0.01989707
Li       2.92087601       1.58658057       1.18213753      -0.02393794      -0.00908540       0.00944402
Li       5.63693711       0.84288217       1.65739540       0.00450292       0.00273243      -0.00497929
Li       2.08433793       3.59056345       3.01273000      -0.00642551       0.00975523       0.01972572
Li      -0.25459410       3.26930225       5.15887217       0.01934732       0.02691823       0.02176153
Li       4.05261405       4.93882915      -1.67686809      -0.00361571      -0.00398390       0.00759422
Li       0.23865577       2.23329353       0.63216194       0.00474372      -0.00807326      -0.01985429
Li      -0.59907300       4.23790603       2.46225312       0.02433735       0.00902545      -0.00946758
Li       6.02750285      -0.04018059      -2.78174954       0.00015795      -0.00085016       0.00046470
Li      -0.85019205       5.35556141      -0.11635511      -0.01165821      -0.01036196       0.01542634
Ga       0.85102140       0.12003752       5.93272807       0.00493016      -0.00610692       0.00583902
Ga       5.11743861       1.87282344      -0.81479940      -0.02592919       0.00182091      -0.00923344
Ga       4.57436659       3.90580452       0.79537235       0.02712916      -0.00265932       0.00980414
Ga       1.46874128       5.70413370      -2.28717906      -0.00366687       0.00536182      -0.00773883
Sn       1.80686157       4.55691020       0.39394628       0.01176264      -0.01673123       0.00546294
Sn       4.94857198       2.97280844      -3.51830092      -0.00064883       0.00072214       0.00037393
Sn       0.51788040       1.26583984       3.25058714      -0.01307061       0.01700985      -0.00657059
10
Lattice="4.414981736262569 -0.0018284397509298132 -0.0014581316806685863 -2.204856886747708 4.920137378656674 -0.028845796152684008 0.0025431140495183655 0.01562695282350399 9.65689225835499" Properties=species:S:1:pos:R:3:forces:R:3 structure_index=11 total_energy=-30.8149471282959 stress="-0.008208134211599827 0.0018579572206363082 -0.001145875663496554 0.0018580638570711017 -0.03262196481227875 0.00242329528555274 -0.001145875663496554 0.002423446159809828 -0.0020581402350217104" pbc="T T T"
Li       0.30251435       3.74174242       3.76648351       0.00002317      -0.02163331       0.00543241
Li       0.30183845       1.67554032       9.50788381       0.00066286       0.02135841      -0.00596849
Ga       2.51111727       3.61875725       8.56422304       0.00031514       0.02632991      -0.01525855
Ga       2.50946507       1.79652095       4.70712447      -0.00038136      -0.02685345       0.01590253
Ga       2.50794552       2.69995132       1.80738282       0.00068532      -0.00010816       0.00024459
Ga      -1.90300368       4.66973226       5.72218836      -0.00078212       0.00971422      -0.01676182
Ga       2.51017075       0.74557928       7.55157298      -0.00019202      -0.00953857       0.01653996
Sn       0.30027706       0.80175400       2.90980484       0.00059208      -0.00061477      -0.01368764
Sn       0.30169489       4.59965845       0.70730012      -0.00015715       0.00051348       0.01339430
Sn       0.30347205       2.70726855       6.63675227      -0.00076591       0.00083223       0.00016275
8
Lattice="4.245951335141022 -0.007860807060845175 -0.9227953861687045 -0.19088198702700276 4.24340574982683 -0.9115717407455929 0.11245645825019068 0.11426475270874709 10.88420197694612" Properties=species:S:1:pos:R:3:forces:R:3 structure_index=12 total_energy=-25.37096405029297 stress="0.032043274492025375 -0.00897420197725296 -0.000113774643978104 -0.00897405669093132 0.028170235455036163 -0.001591066480614245 -0.00011355307651683688 -0.0015910444781184196 0.016613442450761795" pbc="T T T"
Li       2.93163438       2.67938386       3.73074357      -0.00043597      -0.00053707       0.00173182
Li       4.09552113       1.67027113       9.17299968      -0.00240122       0.00064360      -0.00207725
Ga       1.87378872       3.79304876       9.17695277       0.00214947       0.00508051       0.00287915
Ga       0.90379085       0.55783778       4.64901921       0.00306773       0.00500834      -0.00051212
Sn       0.32617566       2.17148172       7.14549014       0.00903185      -0.00170157      -0.00361512
Sn       1.38065416       1.05691226       1.69839113       0.00081995      -0.01105134       0.00664852
Sn       2.35711904       4.29058899       6.23107068      -0.01306441      -0.00515705      -0.00401458
Sn       3.40789645       3.17265546       0.78173202       0.00083264       0.00771459      -0.00104040
20
Lattice="7.670305208224511 -0.2160366722283383 -2.2843130775180147 -4.364506153046762 6.36720761563977 -2.2761211356257713 0.15496229452538937 0.21991668526280567 8.017040827850023" Properties=species:S:1:pos:R:3:forces:R:3 structure_index=13 total_energy=-60.58945083618164 stress="-0.009044352918863297 0.0006913234246894717 -0.000291171862045303 0.0006912389653734863 -0.007829807698726654 -0.0014119691913947463 -0.00029135288787074387 -0.0014119540574029088 -0.009094714187085629" pbc="T T T"
Li      -1.89682436       3.04823672       4.03459803       0.00225610      -0.03982493      -0.01517109
Li      -2.66748560       5.92167958       3.44907352       0.01141619       0.00618384       0.02352396
Li       2.67582622       4.40863215      -2.26546830      -0.01790491       0.01383766       0.02096154
Li       6.08207578       1.92153203       4.65782398       0.02121118      -0.01518601      -0.00180591
Li       3.81833084       0.63194573       1.15811994       0.00237312      -0.01731400      -0.01410933
Li       3.46451128       1.51990033      -1.66059479       0.00095416      -0.00160691      -0.01064876
Li       2.55194076       5.50911529       2.88412504      -0.02457247       0.01604983       0.03481048
Li       0.22683372       4.13624661      -0.53250997       0.00070226      -0.01502287       0.01207547
Li       0.51689026       3.26297670       2.31163107      -0.01093432       0.01157858      -0.03730571
Li       1.34820250       0.43584662       2.84016152       0.01260052       0.02888999      -0.01663527
Ga       6.35187077       0.90103088      -0.60156782      -0.00158978      -0.00295841      -0.00922788
Ga      -0.24866616       6.12364075       1.71949533       0.00032707       0.01254820       0.00341259
Ga       0.93161554       1.28256716       0.09566920       0.00755060       0.00630607      -0.00363284
Sn       0.86829174       2.37331034       5.24998597      -0.00325488       0.01850249       0.00887861
Sn      -2.20086396       3.93679784       1.18888290       0.01143380       0.00240727      -0.00649728
Sn      -2.55196022       4.85084565      -1.72975431       0.03345211      -0.00269194       0.01813133
Sn       2.95378034       3.43793341       0.63621732      -0.01468124      -0.01299676      -0.03033528
Sn       3.32543325       2.57119752       3.50171515       0.01484857      -0.01824933      -0.00142400
Sn       6.53978605      -0.02085498       2.27439948      -0.03546868       0.00747370       0.01672758
Sn       0.14088350       5.33334885       4.53662174      -0.01071942       0.00207353       0.00827179
12
Lattice="4.054209709657334 -0.003590247881998128 0.00024130481351358887 -2.022709133811738 6.25778736131135 -0.11260448181594143 -0.0010723467965234215 0.021248671737518956 8.468294013539884" Properties=species:S:1:pos:R:3:forces:R:3 structure_index=14 total_energy=-34.838958740234375 stress="-0.02073318511247635 -0.004744269419461489 -0.001054210588335991 -0.004744285251945257 0.012970611453056335 0.019640667364001274 -0.0010540089569985867 0.01964072324335575 0.00948498584330082" pbc="T T T"
Li      -0.34996417       2.03647094       6.25582969       0.00169121       0.00784493       0.03174579
Li       1.68100674       4.27375529       1.97223498      -0.00095707       0.01637233       0.03008704
Li       1.67786213       0.04576680       2.04071461      -0.00052651      -0.00164455       0.00016223
Li       1.67983339       4.33413099       6.18003210      -0.00005766      -0.00922439      -0.02963903
Li      -0.34831908       2.07427817       1.99511543       0.00017255      -0.01630501      -0.02790568
Ga       1.67789784       1.99592312       8.35911343       0.00050117       0.00702319      -0.00762350
Ga      -0.34707881       4.37317798       4.07876049       0.00013793      -0.00661830       0.00511926
Ga       1.68141137       6.22360207       4.01888407       0.00008331       0.00598686       0.01253616
Ga       1.67693535       0.05650962       6.27506197      -0.00083391      -0.00059384      -0.00033446
Ga       3.70418574       0.14113580       8.41942095      -0.00107059      -0.00314799      -0.01540930
Sn      -0.34739935       4.17313400       8.32701534       0.00008122       0.02515083       0.00875944
Sn       1.67803271       2.19608284       4.10894263       0.00077838      -0.02484405      -0.00749796
4
Lattice="4.105817985632298 -0.00021941474090460242 0.00108939571481006 0.001040577940628795 4.1041280938666 -0.000520270068215338 -0.0002357248070123782 0.00011183828994901201 4.101724498529006" Properties=species:S:1:pos:R:3:forces:R:3 structure_index=15 total_energy=-11.29051685333252 stress="0.10145238041877747 0.002255367813631892 0.00239658635109663 0.0022552702575922012 0.08747465908527374 -0.0011244053021073341 0.002396539319306612 -0.0011243860935792327 0.0677579790353775" pbc="T T T"
Li       3.91019461       1.73445473       2.54380173      -0.00113741      -0.00351005      -0.00484641
Ga       1.85701763       3.78482580       2.54230995       0.00176328       0.00272963      -0.00358045
Ga       3.91101033       3.78458944       0.48972567      -0.00146109       0.00290722       0.00514713
Ga       1.85702125       1.73375973       0.49031000       0.00083522      -0.00212680       0.00327974
6
Lattice="4.561461375940829 -0.000754210115448 -0.0004191219291956663 -2.279830102806735 3.9509559778605787 0.0016108382621340255 0.0006777622139295413 -0.0028739859882257277 7.4677179963398075" Properties=species:S:1:pos:R:3:forces:R:3 structure_index=16 total_energy=-18.66166114807129 stress="0.027032623067498207 5.37041159986984e-05 -8.996995893539861e-05 5.375304681365378e-05 0.027062514796853065 -0.0004354116681497544 -9.010647772811353e-05 -0.0004355589917395264 0.020131967961788177" pbc="T T T"
Li       2.41494486       0.16940217       0.31500352       0.00023886      -0.00038860       0.04617514
Li       2.41644754       0.16676951       4.04981199      -0.00038171       0.00030159       0.04544508
Ga       0.13576301       1.48399034       4.88075470      -0.00007705       0.00011733      -0.02037407
Ga       2.41585181       2.80249288       1.14741378       0.00024754      -0.00007900      -0.02142951
Sn       0.13502632       1.48556983       2.05609363      -0.00011096       0.00010136      -0.02447299
Sn       2.41676926       2.80024462       5.79036093       0.00008331      -0.00005270      -0.02534361
11
Lattice="3.810611208707352 0.003299031242874612 1.2806433997264535 0.43958084591815705 6.857020836344389 4.982213060957625 -0.4167271372360824 0.8807694777543397 7.54540387149012" Properties=species:S:1:pos:R:3:forces:R:3 structure_index=17 total_energy=-30.265010833740234 stress="0.01630215160548687 -0.0034564111847430468 0.0014017170760780573 -0.0034562975633889437 0.016882626339793205 0.00875784456729889 0.0014016168424859643 0.008757763542234898 0.009624816477298737" pbc="T T T"
Li       2.17989700       5.59270262      10.93858890      -0.00259066       0.00686553       0.00863586
Li       1.72554334       1.67121856       5.99391672      -0.01168700      -0.02717485       0.03388393
Li       4.00512592       5.89936801       5.51018343       0.00719211       0.03278952      -0.02379538
Li       2.60717235       1.81628966       3.37062391      -0.00969083      -0.03621799       0.02792588
Li       3.14873040       3.07817922       8.06580062      -0.00233867      -0.03164298       0.00333498
Li       0.74112772       4.35073298       8.91295061       0.00515037       0.02422802      -0.01222693
Ga       3.06862199       5.80472220       8.29397870      -0.00138180       0.00011320       0.00610960
Ga       0.69141752       7.20914758       9.05460886      -0.00893605      -0.00867397       0.02650359
Ga       0.22379455       3.14381097       4.14759164       0.00893723      -0.00039888      -0.02207738
Ga       1.67754901       4.39425225       6.12981427       0.01006421       0.01557721      -0.03238724
Sn       1.22291493       0.52182043       1.18400490       0.00528107       0.02453519      -0.01590687
8
Lattice="4.5623984698290725 0.002379232095581992 -0.002359754270631023 -2.27868542661988 3.951352954310474 0.0008657879337728946 -0.002194586175253638 -3.964018360940838e-05 8.782661903934288" Properties=species:S:1:pos:R:3:forces:R:3 structure_index=18 total_energy=-23.252750396728516 stress="-0.036228179931640625 0.0008053693454712629 0.0006514530978165567 0.0008054276113398373 -0.03342166543006897 -0.002178953494876623 0.0006515621207654476 -0.002178722061216831 -0.01851385459303856" pbc="T T T"
Li       2.24635981       3.14960677       8.47641386       0.00219104      -0.00049171      -0.02259065
Li       2.24606071       0.51516967       3.82933096      -0.00026409       0.00022914       0.01083001
Li       2.24944629       0.51425445       0.86432214      -0.00258008       0.00079164       0.02264657
Li       2.25059898       3.14821733       5.51194728      -0.00067743       0.00035871      -0.01227866
Ga      -0.03476690       1.83061791       7.75724928       0.00092983      -0.00028833       0.02438017
Ga      -0.03212149       1.83109486       1.58512359      -0.00018731      -0.00020172      -0.02387588
Sn       2.24924527       3.15012990       2.60210754       0.00079418      -0.00051574      -0.04536039
Sn       2.24642926       0.51387248       6.73833157      -0.00020614       0.00011802       0.04624879
6
Lattice="4.61225587931215 -0.0007859566155711304 -0.001149486730421741 -2.3057377918022883 3.994405015825457 -0.0004671676451441157 0.0014704518619750517 0.0014440117394660895 6.407749781493182" Properties=species:S:1:pos:R:3:forces:R:3 structure_index=19 total_energy=-17.796367645263672 stress="-0.028478097170591354 -0.0002626367495395243 -3.061268216697499e-05 -0.0002625874476507306 -0.0290534608066082 -4.116129275644198e-05 -3.0591898394050077e-05 -4.125029590795748e-05 0.04442328214645386" pbc="T T T"
Li      -1.82159422       3.91530210       5.08318208       0.00033118      -0.00014723      -0.00024918
Ga       0.48454166       2.58314191       3.67267560      -0.00006235       0.00001898      -0.01794754
Ga       2.78955803       1.25046547       0.09185007       0.00003243       0.00012990      -0.00510841
Ga       0.48510158       2.58359149       6.49258139      -0.00009244       0.00004126       0.01813513
Ga       2.79049419       1.25148880       3.66537566      -0.00013101      -0.00010782       0.00518875
Sn      -1.82185126       3.91434469       1.87909090      -0.00007781       0.00006490      -0.00001873
8
Lattice="5.218010118357719 0.034187385117705596 -0.07232003665682911 -2.7220956495558157 5.070723832691824 -1.280373467277575 0.06738434504919841 -0.14246110800131517 6.093359560102489" Properties=species:S:1:pos:R:3:forces:R:3 structure_index=20 total_energy=-24.178787231445312 stress="0.02341592311859131 -0.0027597227599471807 0.0009704838157631457 -0.002759885974228382 0.02324964478611946 0.02347184158861637 0.0009705654811114073 0.02347189374268055 0.033526711165905" pbc="T T T"
Li       4.23383456       0.82419818       2.26552016       0.00931930       0.00947582       0.00674883
Li       3.20720828       3.33174870       3.92807469      -0.01256241       0.00805048       0.00416090
Ga       1.47202162       0.83002673       0.78043643      -0.01151805       0.01275836      -0.01377569
Ga       4.22945318       0.86661544       5.33922132       0.01138004       0.01102967      -0.00313086
Ga       0.63526085       3.22396289       2.42795412       0.01217140      -0.01796201       0.01814966
Ga       3.18244063       3.19610136       0.94743411      -0.00156960       0.00061847       0.00497457
Sn       0.57006319       3.54107457      -0.59271874      -0.01951574       0.01002200      -0.01722120
Sn       1.64996910       0.65494789       3.79161069       0.01229506      -0.03399279       0.00009377
20
Lattice="5.242518334527575 0.011431902781426634 -0.48313086258051036 -1.1684939371311316 8.076746962532473 -3.3574856463239966 -0.04258259473747627 -0.11569332770676968 8.917259131876722" Properties=species:S:1:pos:R:3:forces:R:3 structure_index=21 total_energy=-58.10891342163086 stress="-0.008568376302719116 -0.0007952249725349247 -0.0017310874536633492 -0.0007951614097692072 -0.009580517187714577 9.702797251520678e-05 -0.0017310762777924538 9.707726712804288e-05 -0.0064797429367899895" pbc="T T T"
Li      -0.11419478       0.82690369       7.87422171       0.00018555       0.01154033      -0.00794427