# Thermal properties / unit cell (natom)

unit:
  temperature:   K
  free_energy:   kJ/mol
  entropy:       J/K/mol
  heat_capacity: J/K/mol

natom: 3    
cutoff_frequency: 0.00000
num_modes: 254016
num_integrated_modes: 239209

zero_point_energy:       6.0904386

thermal_properties:
- temperature:         0.0000000
  free_energy:         6.0904386
  entropy:             0.0000000
  heat_capacity:       0.0000000
  energy:              6.0904386

- temperature:        10.0000000
  free_energy:         6.0811889
  entropy:             2.7616089
  heat_capacity:       5.2529133
  energy:              6.1088050

- temperature:        20.0000000
  free_energy:         6.0221095
  entropy:             9.4858753
  heat_capacity:      15.6839804
  energy:              6.2118270

- temperature:        30.0000000
  free_energy:         5.8863620
  entropy:            17.7578743
  heat_capacity:      25.2904790
  energy:              6.4190982

- temperature:        40.0000000
  free_energy:         5.6671218
  entropy:            26.0188617
  heat_capacity:      32.0627455
  energy:              6.7078763

- temperature:        50.0000000
  free_energy:         5.3678561
  entropy:            33.7333826
  heat_capacity:      37.0679035
  energy:              7.0545253

- temperature:        60.0000000
  free_energy:         4.9944009
  entropy:            40.8665029
  heat_capacity:      41.2004930
  energy:              7.4463910

- temperature:        70.0000000
  free_energy:         4.5522097
  entropy:            47.4940936
  heat_capacity:      44.8039117
  energy:              7.8767963

- temperature:        80.0000000
  free_energy:         4.0459613
  entropy:            53.6882971
  heat_capacity:      47.9724722
  energy:              8.3410251

- temperature:        90.0000000
  free_energy:         3.4797102
  entropy:            59.5021139
  heat_capacity:      50.7375766
  energy:              8.8349005

- temperature:       100.0000000
  free_energy:         2.8570555
  entropy:            64.9747406
  heat_capacity:      53.1288688
  energy:              9.3545296

- temperature:       110.0000000
  free_energy:         2.1812483
  entropy:            70.1373513
  heat_capacity:      55.1840300
  energy:              9.8963569

- temperature:       120.0000000
  free_energy:         1.4552531
  entropy:            75.0164712
  heat_capacity:      56.9450193
  energy:             10.4572297

- temperature:       130.0000000
  free_energy:         0.6817852
  entropy:            79.6356181
  heat_capacity:      58.4533595
  energy:             11.0344155

- temperature:       140.0000000
  free_energy:        -0.1366637
  entropy:            84.0160438
  heat_capacity:      59.7472068
  energy:             11.6255824

- temperature:       150.0000000
  free_energy:        -0.9978046
  entropy:            88.1770771
  heat_capacity:      60.8600857
  energy:             12.2287570

- temperature:       160.0000000
  free_energy:        -1.8995328
  entropy:            92.1363109
  heat_capacity:      61.8206668
  energy:             12.8422770

- temperature:       170.0000000
  free_energy:        -2.8399116
  entropy:            95.9097362
  heat_capacity:      62.6530830
  energy:             13.4647436

- temperature:       180.0000000
  free_energy:        -3.8171567
  entropy:            99.5118642
  heat_capacity:      63.3774683
  energy:             14.0949789

- temperature:       190.0000000
  free_energy:        -4.8296219
  entropy:           102.9558461
  heat_capacity:      64.0105478
  energy:             14.7319889

- temperature:       200.0000000
  free_energy:        -5.8757863
  entropy:           106.2535913
  heat_capacity:      64.5661956
  energy:             15.3749320

- temperature:       210.0000000
  free_energy:        -6.9542423
  entropy:           109.4158838
  heat_capacity:      65.0559282
  energy:             16.0230933

- temperature:       220.0000000
  free_energy:        -8.0636851
  entropy:           112.4524911
  heat_capacity:      65.4893235
  energy:             16.6758630

- temperature:       230.0000000
  free_energy:        -9.2029028
  entropy:           115.3722674
  heat_capacity:      65.8743686
  energy:             17.3327187

- temperature:       240.0000000
  free_energy:       -10.3707679
  entropy:           118.1832476
  heat_capacity:      66.2177468
  energy:             17.9932116

- temperature:       250.0000000
  free_energy:       -11.5662295
  entropy:           120.8927323
  heat_capacity:      66.5250705
  energy:             18.6569536

- temperature:       260.0000000
  free_energy:       -12.7883064
  entropy:           123.5073655
  heat_capacity:      66.8010712
  energy:             19.3236086

- temperature:       270.0000000
  free_energy:       -14.0360809
  entropy:           126.0332033
  heat_capacity:      67.0497534
  energy:             19.9928840

- temperature:       280.0000000
  free_energy:       -15.3086930
  entropy:           128.4757750
  heat_capacity:      67.2745198
  energy:             20.6645240

- temperature:       290.0000000
  free_energy:       -16.6053357
  entropy:           130.8401384
  heat_capacity:      67.4782732
  energy:             21.3383044

- temperature:       300.0000000
  free_energy:       -17.9252505
  entropy:           133.1309277
  heat_capacity:      67.6634992
  energy:             22.0140278

- temperature:       310.0000000
  free_energy:       -19.2677232
  entropy:           135.3523969
  heat_capacity:      67.8323348
  energy:             22.6915198

- temperature:       320.0000000
  free_energy:       -20.6320805
  entropy:           137.5084578
  heat_capacity:      67.9866237
  energy:             23.3706260

- temperature:       330.0000000
  free_energy:       -22.0176864
  entropy:           139.6027138
  heat_capacity:      68.1279622
  energy:             24.0512091

- temperature:       340.0000000
  free_energy:       -23.4239398
  entropy:           141.6384899
  heat_capacity:      68.2577375
  energy:             24.7331467

- temperature:       350.0000000
  free_energy:       -24.8502715
  entropy:           143.6188598
  heat_capacity:      68.3771587
  energy:             25.4163294

- temperature:       360.0000000
  free_energy:       -26.2961419
  entropy:           145.5466689
  heat_capacity:      68.4872835
  energy:             26.1006589

- temperature:       370.0000000
  free_energy:       -27.7610385
  entropy:           147.4245560
  heat_capacity:      68.5890397
  energy:             26.7860472

- temperature:       380.0000000
  free_energy:       -29.2444748
  entropy:           149.2549719
  heat_capacity:      68.6832438
  energy:             27.4724146

- temperature:       390.0000000
  free_energy:       -30.7459874
  entropy:           151.0401965
  heat_capacity:      68.7706163
  energy:             28.1596893

- temperature:       400.0000000
  free_energy:       -32.2651351
  entropy:           152.7823535
  heat_capacity:      68.8517949
  energy:             28.8478063

- temperature:       410.0000000
  free_energy:       -33.8014975
  entropy:           154.4834242
  heat_capacity:      68.9273453
  energy:             29.5367064

- temperature:       420.0000000
  free_energy:       -35.3546729
  entropy:           156.1452594
  heat_capacity:      68.9977709
  energy:             30.2263361

- temperature:       430.0000000
  free_energy:       -36.9242777
  entropy:           157.7695905
  heat_capacity:      69.0635204
  energy:             30.9166463

- temperature:       440.0000000
  free_energy:       -38.5099451
  entropy:           159.3580394
  heat_capacity:      69.1249952
  energy:             31.6075923

- temperature:       450.0000000
  free_energy:       -40.1113239
  entropy:           160.9121268
  heat_capacity:      69.1825547
  energy:             32.2991331

- temperature:       460.0000000
  free_energy:       -41.7280778
  entropy:           162.4332809
  heat_capacity:      69.2365217
  energy:             32.9912314

- temperature:       470.0000000
  free_energy:       -43.3598843
  entropy:           163.9228443
  heat_capacity:      69.2871867
  energy:             33.6838526

- temperature:       480.0000000
  free_energy:       -45.0064336
  entropy:           165.3820805
  heat_capacity:      69.3348117
  energy:             34.3769650

- temperature:       490.0000000
  free_energy:       -46.6674287
  entropy:           166.8121800
  heat_capacity:      69.3796334
  energy:             35.0705394

- temperature:       500.0000000
  free_energy:       -48.3425839
  entropy:           168.2142658
  heat_capacity:      69.4218659
  energy:             35.7645490

- temperature:       510.0000000
  free_energy:       -50.0316242
  entropy:           169.5893981
  heat_capacity:      69.4617036
  energy:             36.4589688

- temperature:       520.0000000
  free_energy:       -51.7342853
  entropy:           170.9385789
  heat_capacity:      69.4993231
  energy:             37.1537757

- temperature:       530.0000000
  free_energy:       -53.4503125
  entropy:           172.2627563
  heat_capacity:      69.5348850
  energy:             37.8489484

- temperature:       540.0000000
  free_energy:       -55.1794601
  entropy:           173.5628280
  heat_capacity:      69.5685358
  energy:             38.5444670

- temperature:       550.0000000
  free_energy:       -56.9214915
  entropy:           174.8396449
  heat_capacity:      69.6004092
  energy:             39.2403132

- temperature:       560.0000000
  free_energy:       -58.6761782
  entropy:           176.0940141
  heat_capacity:      69.6306276
  energy:             39.9364697

- temperature:       570.0000000
  free_energy:       -60.4432995
  entropy:           177.3267020
  heat_capacity:      69.6593029
  energy:             40.6329206

- temperature:       580.0000000
  free_energy:       -62.2226424
  entropy:           178.5384368
  heat_capacity:      69.6865379
  energy:             41.3296510

- temperature:       590.0000000
  free_energy:       -64.0140007
  entropy:           179.7299112
  heat_capacity:      69.7124271
  energy:             42.0266469

- temperature:       600.0000000
  free_energy:       -65.8171753
  entropy:           180.9017843
  heat_capacity:      69.7370571
  energy:             42.7238953

- temperature:       610.0000000
  free_energy:       -67.6319732
  entropy:           182.0546840
  heat_capacity:      69.7605081
  energy:             43.4213841

- temperature:       620.0000000
  free_energy:       -69.4582077
  entropy:           183.1892089
  heat_capacity:      69.7828537
  energy:             44.1191018

- temperature:       630.0000000
  free_energy:       -71.2956980
  entropy:           184.3059297
  heat_capacity:      69.8041620
  energy:             44.8170377

- temperature:       640.0000000
  free_energy:       -73.1442688
  entropy:           185.4053915
  heat_capacity:      69.8244960
  energy:             45.5151818

- temperature:       650.0000000
  free_energy:       -75.0037500
  entropy:           186.4881148
  heat_capacity:      69.8439139
  energy:             46.2135246

- temperature:       660.0000000
  free_energy:       -76.8739769
  entropy:           187.5545971
  heat_capacity:      69.8624698
  energy:             46.9120572

- temperature:       670.0000000
  free_energy:       -78.7547894
  entropy:           188.6053145
  heat_capacity:      69.8802137
  energy:             47.6107713

- temperature:       680.0000000
  free_energy:       -80.6460322
  entropy:           189.6407222
  heat_capacity:      69.8971922
  energy:             48.3096589

- temperature:       690.0000000
  free_energy:       -82.5475543
  entropy:           190.6612565
  heat_capacity:      69.9134484
  energy:             49.0087127

- temperature:       700.0000000
  free_energy:       -84.4592091
  entropy:           191.6673353
  heat_capacity:      69.9290226
  energy:             49.7079256

- temperature:       710.0000000
  free_energy:       -86.3808542
  entropy:           192.6593594
  heat_capacity:      69.9439524
  energy:             50.4072910

- temperature:       720.0000000
  free_energy:       -88.3123508
  entropy:           193.6377130
  heat_capacity:      69.9582727
  energy:             51.1068026

- temperature:       730.0000000
  free_energy:       -90.2535641
  entropy:           194.6027652
  heat_capacity:      69.9720160
  energy:             51.8064545

- temperature:       740.0000000
  free_energy:       -92.2043629
  entropy:           195.5548703
  heat_capacity:      69.9852130
  energy:             52.5062411

- temperature:       750.0000000
  free_energy:       -94.1646195
  entropy:           196.4943687
  heat_capacity:      69.9978920
  energy:             53.2061571

- temperature:       760.0000000
  free_energy:       -96.1342094
  entropy:           197.4215877
  heat_capacity:      70.0100798
  energy:             53.9061973

- temperature:       770.0000000
  free_energy:       -98.1130114
  entropy:           198.3368421
  heat_capacity:      70.0218013
  energy:             54.6063571

- temperature:       780.0000000
  free_energy:      -100.1009073
  entropy:           199.2404349
  heat_capacity:      70.0330799
  energy:             55.3066319

- temperature:       790.0000000
  free_energy:      -102.0977822
  entropy:           200.1326575
  heat_capacity:      70.0439377
  energy:             56.0070173

- temperature:       800.0000000
  free_energy:      -104.1035235
  entropy:           201.0137910
  heat_capacity:      70.0543952
  energy:             56.7075093

- temperature:       810.0000000
  free_energy:      -106.1180219
  entropy:           201.8841060
  heat_capacity:      70.0644719
  energy:             57.4081039

- temperature:       820.0000000
  free_energy:      -108.1411704
  entropy:           202.7438634
  heat_capacity:      70.0741859
  energy:             58.1087975

- temperature:       830.0000000
  free_energy:      -110.1728648
  entropy:           203.5933148
  heat_capacity:      70.0835544
  energy:             58.8095865

- temperature:       840.0000000
  free_energy:      -112.2130032
  entropy:           204.4327032
  heat_capacity:      70.0925936
  energy:             59.5104675

- temperature:       850.0000000
  free_energy:      -114.2614861
  entropy:           205.2622629
  heat_capacity:      70.1013187
  energy:             60.2114373

- temperature:       860.0000000
  free_energy:      -116.3182165
  entropy:           206.0822202
  heat_capacity:      70.1097439
  energy:             60.9124929

- temperature:       870.0000000
  free_energy:      -118.3830993
  entropy:           206.8927937
  heat_capacity:      70.1178830
  energy:             61.6136312

- temperature:       880.0000000
  free_energy:      -120.4560418
  entropy:           207.6941948
  heat_capacity:      70.1257487
  energy:             62.3148496

- temperature:       890.0000000
  free_energy:      -122.5369533
  entropy:           208.4866276
  heat_capacity:      70.1333530
  energy:             63.0161453

- temperature:       900.0000000
  free_energy:      -124.6257451
  entropy:           209.2702899
  heat_capacity:      70.1407074
  energy:             63.7175159

- temperature:       910.0000000
  free_energy:      -126.7223305
  entropy:           210.0453727
  heat_capacity:      70.1478226
  energy:             64.4189587

- temperature:       920.0000000
  free_energy:      -128.8266245
  entropy:           210.8120610
  heat_capacity:      70.1547090
  energy:             65.1204715

- temperature:       930.0000000
  free_energy:      -130.9385443
  entropy:           211.5705338
  heat_capacity:      70.1613763
  energy:             65.8220521

- temperature:       940.0000000
  free_energy:      -133.0580084
  entropy:           212.3209647
  heat_capacity:      70.1678335
  energy:             66.5236984

- temperature:       950.0000000
  free_energy:      -135.1849373
  entropy:           213.0635216
  heat_capacity:      70.1740894
  energy:             67.2254081

- temperature:       960.0000000
  free_energy:      -137.3192531
  entropy:           213.7983674
  heat_capacity:      70.1801524
  energy:             67.9271795

- temperature:       970.0000000
  free_energy:      -139.4608795
  entropy:           214.5256599
  heat_capacity:      70.1860301
  energy:             68.6290106

- temperature:       980.0000000
  free_energy:      -141.6097417
  entropy:           215.2455522
  heat_capacity:      70.1917301
  energy:             69.3308995

- temperature:       990.0000000
  free_energy:      -143.7657664
  entropy:           215.9581929
  heat_capacity:      70.1972595
  energy:             70.0328446

- temperature:      1000.0000000
  free_energy:      -145.9288818
  entropy:           216.6637260
  heat_capacity:      70.2026250
  energy:             70.7348442
