phonopy:
  version: "2.37.1"
  frequency_unit_conversion_factor: 15.633302
  symmetry_tolerance: 1.00000e-05

space_group:
  type: "P1"
  number: 1
  Hall_symbol: "P 1"

primitive_matrix:
- [ -1.000000000000000,  0.000000000000000,  0.000000000000000 ]
- [  0.000000000000000,  0.000000000000000, -1.000000000000000 ]
- [  0.000000000000000, -1.000000000000000,  0.000000000000000 ]

supercell_matrix:
- [   3,   0,   0 ]
- [   0,   2,   0 ]
- [   0,   0,   2 ]

primitive_cell:
  lattice:
  - [    -4.719509946012741,     0.000000000000000,     0.000000000000000 ] # a
  - [     0.000155262023094,     2.027332887239242,    -5.408848882850682 ] # b
  - [     0.000234957997734,    -5.777764476517400,     0.000000000000000 ] # c
  points:
  - symbol: Li # 1
    coordinates: [  0.291167031057583,  0.757793546669757,  0.114627062750711 ]
    mass: 6.940000
  - symbol: Li # 2
    coordinates: [  0.290899030659643,  0.257695866723992,  0.614540422007671 ]
    mass: 6.940000
  - symbol: Li # 3
    coordinates: [  0.791042720109140,  0.972011081297927,  0.399986125041110 ]
    mass: 6.940000
  - symbol: Li # 4
    coordinates: [  0.291048646766611,  0.257486423318029,  0.114758999758412 ]
    mass: 6.940000
  - symbol: Li # 5
    coordinates: [  0.791010670719347,  0.543133745126209,  0.829346901368361 ]
    mass: 6.940000
  - symbol: Li # 6
    coordinates: [  0.790898167004173,  0.494592488735772,  0.352250498693542 ]
    mass: 6.940000
  - symbol: Li # 7
    coordinates: [  0.791099438283836,  0.020643123720819,  0.877328455203587 ]
    mass: 6.940000
  - symbol: Sn # 8
    coordinates: [  0.290999230783442,  0.757637783174573,  0.614665488292376 ]
    mass: 118.710000
  reciprocal_lattice: # without 2pi
  - [    -0.211886405885180,    -0.000008616551588,    -0.000009311876065 ] # a*
  - [    -0.000000000000000,    -0.000000000000000,    -0.184882222014115 ] # b*
  - [    -0.000000000000000,    -0.173077321525359,    -0.064872462433950 ] # c*

unit_cell:
  lattice:
  - [     4.719509946012741,     0.000000000000000,     0.000000000000000 ] # a
  - [    -0.000234957997734,     5.777764476517400,     0.000000000000000 ] # b
  - [    -0.000155262023094,    -2.027332887239242,     5.408848882850683 ] # c
  points:
  - symbol: Li # 1
    coordinates: [  0.708832968942417,  0.885372937249289,  0.242206453330243 ]
    mass: 6.940000
    reduced_to: 1
  - symbol: Li # 2
    coordinates: [  0.709100969340357,  0.385459577992329,  0.742304133276007 ]
    mass: 6.940000
    reduced_to: 2
  - symbol: Li # 3
    coordinates: [  0.208957279890860,  0.600013874958890,  0.027988918702073 ]
    mass: 6.940000
    reduced_to: 3
  - symbol: Li # 4
    coordinates: [  0.708951353233389,  0.885241000241588,  0.742513576681971 ]
    mass: 6.940000
    reduced_to: 4
  - symbol: Li # 5
    coordinates: [  0.208989329280653,  0.170653098631639,  0.456866254873791 ]
    mass: 6.940000
    reduced_to: 5
  - symbol: Li # 6
    coordinates: [  0.209101832995827,  0.647749501306458,  0.505407511264228 ]
    mass: 6.940000
    reduced_to: 6
  - symbol: Li # 7
    coordinates: [  0.208900561716164,  0.122671544796413,  0.979356876279180 ]
    mass: 6.940000
    reduced_to: 7
  - symbol: Sn # 8
    coordinates: [  0.709000769216558,  0.385334511707624,  0.242362216825427 ]
    mass: 118.710000
    reduced_to: 8

supercell:
  lattice:
  - [    14.158529838038222,     0.000000000000000,     0.000000000000000 ] # a
  - [    -0.000469915995469,    11.555528953034800,     0.000000000000000 ] # b
  - [    -0.000310524046188,    -4.054665774478483,    10.817697765701366 ] # c
  points:
  - symbol: Li # 1
    coordinates: [  0.236277656314139,  0.442686468624645,  0.121103226665122 ]
    mass: 6.940000
    reduced_to: 1
  - symbol: Li # 2
    coordinates: [  0.569610989647472,  0.442686468624645,  0.121103226665122 ]
    mass: 6.940000
    reduced_to: 1
  - symbol: Li # 3
    coordinates: [  0.902944322980806,  0.442686468624645,  0.121103226665122 ]
    mass: 6.940000
    reduced_to: 1
  - symbol: Li # 4
    coordinates: [  0.236277656314139,  0.942686468624645,  0.121103226665122 ]
    mass: 6.940000
    reduced_to: 1
  - symbol: Li # 5
    coordinates: [  0.569610989647472,  0.942686468624645,  0.121103226665122 ]
    mass: 6.940000
    reduced_to: 1
  - symbol: Li # 6
    coordinates: [  0.902944322980806,  0.942686468624645,  0.121103226665122 ]
    mass: 6.940000
    reduced_to: 1
  - symbol: Li # 7
    coordinates: [  0.236277656314139,  0.442686468624645,  0.621103226665122 ]
    mass: 6.940000
    reduced_to: 1
  - symbol: Li # 8
    coordinates: [  0.569610989647472,  0.442686468624645,  0.621103226665122 ]
    mass: 6.940000
    reduced_to: 1
  - symbol: Li # 9
    coordinates: [  0.902944322980806,  0.442686468624645,  0.621103226665122 ]
    mass: 6.940000
    reduced_to: 1
  - symbol: Li # 10
    coordinates: [  0.236277656314139,  0.942686468624645,  0.621103226665122 ]
    mass: 6.940000
    reduced_to: 1
  - symbol: Li # 11
    coordinates: [  0.569610989647472,  0.942686468624645,  0.621103226665122 ]
    mass: 6.940000
    reduced_to: 1
  - symbol: Li # 12
    coordinates: [  0.902944322980806,  0.942686468624645,  0.621103226665122 ]
    mass: 6.940000
    reduced_to: 1
  - symbol: Li # 13
    coordinates: [  0.236366989780119,  0.192729788996165,  0.371152066638004 ]
    mass: 6.940000
    reduced_to: 13
  - symbol: Li # 14
    coordinates: [  0.569700323113452,  0.192729788996165,  0.371152066638004 ]
    mass: 6.940000
    reduced_to: 13
  - symbol: Li # 15
    coordinates: [  0.903033656446786,  0.192729788996165,  0.371152066638004 ]
    mass: 6.940000
    reduced_to: 13
  - symbol: Li # 16
    coordinates: [  0.236366989780119,  0.692729788996165,  0.371152066638004 ]
    mass: 6.940000
    reduced_to: 13
  - symbol: Li # 17
    coordinates: [  0.569700323113452,  0.692729788996165,  0.371152066638004 ]
    mass: 6.940000
    reduced_to: 13
  - symbol: Li # 18
    coordinates: [  0.903033656446786,  0.692729788996165,  0.371152066638004 ]
    mass: 6.940000
    reduced_to: 13
  - symbol: Li # 19
    coordinates: [  0.236366989780119,  0.192729788996165,  0.871152066638004 ]
    mass: 6.940000
    reduced_to: 13
  - symbol: Li # 20
    coordinates: [  0.569700323113452,  0.192729788996165,  0.871152066638004 ]
    mass: 6.940000
    reduced_to: 13
  - symbol: Li # 21
    coordinates: [  0.903033656446786,  0.192729788996165,  0.871152066638004 ]
    mass: 6.940000
    reduced_to: 13
  - symbol: Li # 22
    coordinates: [  0.236366989780119,  0.692729788996165,  0.871152066638004 ]
    mass: 6.940000
    reduced_to: 13
  - symbol: Li # 23
    coordinates: [  0.569700323113452,  0.692729788996165,  0.871152066638004 ]
    mass: 6.940000
    reduced_to: 13
  - symbol: Li # 24
    coordinates: [  0.903033656446786,  0.692729788996165,  0.871152066638004 ]
    mass: 6.940000
    reduced_to: 13
  - symbol: Li # 25
    coordinates: [  0.069652426630287,  0.300006937479445,  0.013994459351036 ]
    mass: 6.940000
    reduced_to: 25
  - symbol: Li # 26
    coordinates: [  0.402985759963620,  0.300006937479445,  0.013994459351036 ]
    mass: 6.940000
    reduced_to: 25
  - symbol: Li # 27
    coordinates: [  0.736319093296953,  0.300006937479445,  0.013994459351036 ]
    mass: 6.940000
    reduced_to: 25
  - symbol: Li # 28
    coordinates: [  0.069652426630287,  0.800006937479445,  0.013994459351036 ]
    mass: 6.940000
    reduced_to: 25
  - symbol: Li # 29
    coordinates: [  0.402985759963620,  0.800006937479445,  0.013994459351036 ]
    mass: 6.940000
    reduced_to: 25
  - symbol: Li # 30
    coordinates: [  0.736319093296953,  0.800006937479445,  0.013994459351036 ]
    mass: 6.940000
    reduced_to: 25
  - symbol: Li # 31
    coordinates: [  0.069652426630287,  0.300006937479445,  0.513994459351036 ]
    mass: 6.940000
    reduced_to: 25
  - symbol: Li # 32
    coordinates: [  0.402985759963620,  0.300006937479445,  0.513994459351036 ]
    mass: 6.940000
    reduced_to: 25
  - symbol: Li # 33
    coordinates: [  0.736319093296953,  0.300006937479445,  0.513994459351036 ]
    mass: 6.940000
    reduced_to: 25
  - symbol: Li # 34
    coordinates: [  0.069652426630287,  0.800006937479445,  0.513994459351036 ]
    mass: 6.940000
    reduced_to: 25
  - symbol: Li # 35
    coordinates: [  0.402985759963620,  0.800006937479445,  0.513994459351036 ]
    mass: 6.940000
    reduced_to: 25
  - symbol: Li # 36
    coordinates: [  0.736319093296953,  0.800006937479445,  0.513994459351036 ]
    mass: 6.940000
    reduced_to: 25
  - symbol: Li # 37
    coordinates: [  0.236317117744463,  0.442620500120794,  0.371256788340985 ]
    mass: 6.940000
    reduced_to: 37
  - symbol: Li # 38
    coordinates: [  0.569650451077796,  0.442620500120794,  0.371256788340985 ]
    mass: 6.940000
    reduced_to: 37
  - symbol: Li # 39
    coordinates: [  0.902983784411130,  0.442620500120794,  0.371256788340985 ]
    mass: 6.940000
    reduced_to: 37
  - symbol: Li # 40
    coordinates: [  0.236317117744463,  0.942620500120794,  0.371256788340985 ]
    mass: 6.940000
    reduced_to: 37
  - symbol: Li # 41
    coordinates: [  0.569650451077796,  0.942620500120794,  0.371256788340985 ]
    mass: 6.940000
    reduced_to: 37
  - symbol: Li # 42
    coordinates: [  0.902983784411130,  0.942620500120794,  0.371256788340985 ]
    mass: 6.940000
    reduced_to: 37
  - symbol: Li # 43
    coordinates: [  0.236317117744463,  0.442620500120794,  0.871256788340985 ]
    mass: 6.940000
    reduced_to: 37
  - symbol: Li # 44
    coordinates: [  0.569650451077796,  0.442620500120794,  0.871256788340985 ]
    mass: 6.940000
    reduced_to: 37
  - symbol: Li # 45
    coordinates: [  0.902983784411130,  0.442620500120794,  0.871256788340985 ]
    mass: 6.940000
    reduced_to: 37
  - symbol: Li # 46
    coordinates: [  0.236317117744463,  0.942620500120794,  0.871256788340985 ]
    mass: 6.940000
    reduced_to: 37
  - symbol: Li # 47
    coordinates: [  0.569650451077796,  0.942620500120794,  0.871256788340985 ]
    mass: 6.940000
    reduced_to: 37
  - symbol: Li # 48
    coordinates: [  0.902983784411130,  0.942620500120794,  0.871256788340985 ]
    mass: 6.940000
    reduced_to: 37
  - symbol: Li # 49
    coordinates: [  0.069663109760218,  0.085326549315820,  0.228433127436896 ]
    mass: 6.940000
    reduced_to: 49
  - symbol: Li # 50
    coordinates: [  0.402996443093551,  0.085326549315820,  0.228433127436896 ]
    mass: 6.940000
    reduced_to: 49
  - symbol: Li # 51
    coordinates: [  0.736329776426884,  0.085326549315820,  0.228433127436896 ]
    mass: 6.940000
    reduced_to: 49
  - symbol: Li # 52
    coordinates: [  0.069663109760218,  0.585326549315820,  0.228433127436896 ]
    mass: 6.940000
    reduced_to: 49
  - symbol: Li # 53
    coordinates: [  0.402996443093551,  0.585326549315820,  0.228433127436896 ]
    mass: 6.940000
    reduced_to: 49
  - symbol: Li # 54
    coordinates: [  0.736329776426884,  0.585326549315820,  0.228433127436896 ]
    mass: 6.940000
    reduced_to: 49
  - symbol: Li # 55
    coordinates: [  0.069663109760218,  0.085326549315820,  0.728433127436896 ]
    mass: 6.940000
    reduced_to: 49
  - symbol: Li # 56
    coordinates: [  0.402996443093551,  0.085326549315820,  0.728433127436896 ]
    mass: 6.940000
    reduced_to: 49
  - symbol: Li # 57
    coordinates: [  0.736329776426884,  0.085326549315820,  0.728433127436896 ]
    mass: 6.940000
    reduced_to: 49
  - symbol: Li # 58
    coordinates: [  0.069663109760218,  0.585326549315820,  0.728433127436896 ]
    mass: 6.940000
    reduced_to: 49
  - symbol: Li # 59
    coordinates: [  0.402996443093551,  0.585326549315820,  0.728433127436896 ]
    mass: 6.940000
    reduced_to: 49
  - symbol: Li # 60
    coordinates: [  0.736329776426884,  0.585326549315820,  0.728433127436896 ]
    mass: 6.940000
    reduced_to: 49
  - symbol: Li # 61
    coordinates: [  0.069700610998609,  0.323874750653229,  0.252703755632114 ]
    mass: 6.940000
    reduced_to: 61
  - symbol: Li # 62
    coordinates: [  0.403033944331942,  0.323874750653229,  0.252703755632114 ]
    mass: 6.940000
    reduced_to: 61
  - symbol: Li # 63
    coordinates: [  0.736367277665276,  0.323874750653229,  0.252703755632114 ]
    mass: 6.940000
    reduced_to: 61
  - symbol: Li # 64
    coordinates: [  0.069700610998609,  0.823874750653229,  0.252703755632114 ]
    mass: 6.940000
    reduced_to: 61
  - symbol: Li # 65
    coordinates: [  0.403033944331942,  0.823874750653229,  0.252703755632114 ]
    mass: 6.940000
    reduced_to: 61
  - symbol: Li # 66
    coordinates: [  0.736367277665276,  0.823874750653229,  0.252703755632114 ]
    mass: 6.940000
    reduced_to: 61
  - symbol: Li # 67
    coordinates: [  0.069700610998609,  0.323874750653229,  0.752703755632114 ]
    mass: 6.940000
    reduced_to: 61
  - symbol: Li # 68
    coordinates: [  0.403033944331942,  0.323874750653229,  0.752703755632114 ]
    mass: 6.940000
    reduced_to: 61
  - symbol: Li # 69
    coordinates: [  0.736367277665276,  0.323874750653229,  0.752703755632114 ]
    mass: 6.940000
    reduced_to: 61
  - symbol: Li # 70
    coordinates: [  0.069700610998609,  0.823874750653229,  0.752703755632114 ]
    mass: 6.940000
    reduced_to: 61
  - symbol: Li # 71
    coordinates: [  0.403033944331942,  0.823874750653229,  0.752703755632114 ]
    mass: 6.940000
    reduced_to: 61
  - symbol: Li # 72
    coordinates: [  0.736367277665276,  0.823874750653229,  0.752703755632114 ]
    mass: 6.940000
    reduced_to: 61
  - symbol: Li # 73
    coordinates: [  0.069633520572055,  0.061335772398206,  0.489678438139590 ]
    mass: 6.940000
    reduced_to: 73
  - symbol: Li # 74
    coordinates: [  0.402966853905388,  0.061335772398206,  0.489678438139590 ]
    mass: 6.940000
    reduced_to: 73
  - symbol: Li # 75
    coordinates: [  0.736300187238721,  0.061335772398206,  0.489678438139590 ]
    mass: 6.940000
    reduced_to: 73
  - symbol: Li # 76
    coordinates: [  0.069633520572055,  0.561335772398206,  0.489678438139590 ]
    mass: 6.940000
    reduced_to: 73
  - symbol: Li # 77
    coordinates: [  0.402966853905388,  0.561335772398206,  0.489678438139590 ]
    mass: 6.940000
    reduced_to: 73
  - symbol: Li # 78
    coordinates: [  0.736300187238721,  0.561335772398206,  0.489678438139590 ]
    mass: 6.940000
    reduced_to: 73
  - symbol: Li # 79
    coordinates: [  0.069633520572055,  0.061335772398206,  0.989678438139590 ]
    mass: 6.940000
    reduced_to: 73
  - symbol: Li # 80
    coordinates: [  0.402966853905388,  0.061335772398206,  0.989678438139590 ]
    mass: 6.940000
    reduced_to: 73
  - symbol: Li # 81
    coordinates: [  0.736300187238721,  0.061335772398206,  0.989678438139590 ]
    mass: 6.940000
    reduced_to: 73
  - symbol: Li # 82
    coordinates: [  0.069633520572055,  0.561335772398206,  0.989678438139590 ]
    mass: 6.940000
    reduced_to: 73
  - symbol: Li # 83
    coordinates: [  0.402966853905388,  0.561335772398206,  0.989678438139590 ]
    mass: 6.940000
    reduced_to: 73
  - symbol: Li # 84
    coordinates: [  0.736300187238721,  0.561335772398206,  0.989678438139590 ]
    mass: 6.940000
    reduced_to: 73
  - symbol: Sn # 85
    coordinates: [  0.236333589738853,  0.192667255853812,  0.121181108412714 ]
    mass: 118.710000
    reduced_to: 85
  - symbol: Sn # 86
    coordinates: [  0.569666923072186,  0.192667255853812,  0.121181108412714 ]
    mass: 118.710000
    reduced_to: 85
  - symbol: Sn # 87
    coordinates: [  0.903000256405519,  0.192667255853812,  0.121181108412714 ]
    mass: 118.710000
    reduced_to: 85
  - symbol: Sn # 88
    coordinates: [  0.236333589738853,  0.692667255853812,  0.121181108412714 ]
    mass: 118.710000
    reduced_to: 85
  - symbol: Sn # 89
    coordinates: [  0.569666923072186,  0.692667255853812,  0.121181108412714 ]
    mass: 118.710000
    reduced_to: 85
  - symbol: Sn # 90
    coordinates: [  0.903000256405519,  0.692667255853812,  0.121181108412714 ]
    mass: 118.710000
    reduced_to: 85
  - symbol: Sn # 91
    coordinates: [  0.236333589738853,  0.192667255853812,  0.621181108412714 ]
    mass: 118.710000
    reduced_to: 85
  - symbol: Sn # 92
    coordinates: [  0.569666923072186,  0.192667255853812,  0.621181108412714 ]
    mass: 118.710000
    reduced_to: 85
  - symbol: Sn # 93
    coordinates: [  0.903000256405519,  0.192667255853812,  0.621181108412714 ]
    mass: 118.710000
    reduced_to: 85
  - symbol: Sn # 94
    coordinates: [  0.236333589738853,  0.692667255853812,  0.621181108412714 ]
    mass: 118.710000
    reduced_to: 85
  - symbol: Sn # 95
    coordinates: [  0.569666923072186,  0.692667255853812,  0.621181108412714 ]
    mass: 118.710000
    reduced_to: 85
  - symbol: Sn # 96
    coordinates: [  0.903000256405519,  0.692667255853812,  0.621181108412714 ]
    mass: 118.710000
    reduced_to: 85

displacements:
- atom:    1
  displacement:
    [   0.0100000000000000,  0.0000000000000000,  0.0000000000000000 ]
  forces:
  - [  -0.0123301986604929, -0.0017970169428736,  0.0022641029208899 ]
  - [   0.0003918656148016, -0.0017939861863852,  0.0022615878842771 ]
  - [   0.0003974608553108, -0.0017947964370251,  0.0022610428277403 ]
  - [   0.0007869775872678, -0.0017945331055671,  0.0022610081359744 ]
  - [   0.0010731338988990, -0.0017945216968656,  0.0022614812478423 ]
  - [   0.0010741201695055, -0.0017942255362868,  0.0022611273452640 ]
  - [   0.0010452242568135, -0.0017945889849216,  0.0022617196664214 ]
  - [   0.0010581340175122, -0.0017948064487427,  0.0022614607587457 ]
  - [   0.0010580973466858, -0.0017947953892872,  0.0022616777569056 ]
  - [   0.0010319445282221, -0.0017961408011615,  0.0022617089562118 ]
  - [   0.0010641959961504, -0.0017961210105568,  0.0022616675123572 ]
  - [   0.0010638313833624, -0.0017958972603083,  0.0022617089562118 ]
  - [  -0.0009623000514694, -0.0021405406296253,  0.0012599877081811 ]
  - [  -0.0008842937531881, -0.0021430025808513,  0.0012536633294076 ]
  - [  -0.0008843703544699, -0.0021390169858932,  0.0012639712076634 ]
  - [  -0.0007933274609968, -0.0021429415792227,  0.0012584570795298 ]
  - [  -0.0007993249455467, -0.0020935172215104,  0.0013053324073553 ]
  - [  -0.0007991606253199, -0.0021885391324759,  0.0012118006125093 ]
  - [  -0.0007921583019197, -0.0021397732198238,  0.0012589568505064 ]
  - [  -0.0007985135307536, -0.0021895999088883,  0.0012113432167098 ]
  - [  -0.0007992720347829, -0.0020942278206348,  0.0013055540621281 ]
  - [  -0.0009616947500035, -0.0021410286426544,  0.0012573291314766 ]
  - [  -0.0008845027768984, -0.0021391506306827,  0.0012636310420930 ]
  - [  -0.0008845361298881, -0.0021431325003505,  0.0012531562242657 ]
  - [   0.0028668241575360, -0.0020742472261190,  0.0045129768550396 ]
  - [   0.0028947149403393, -0.0060701966285706,  0.0020674876868725 ]
  - [   0.0001085168914869, -0.0040552560240030,  0.0032975319772959 ]
  - [   0.0003021436277777, -0.0041434913873672,  0.0034355111420155 ]
  - [   0.0003048277576454, -0.0039690621197224,  0.0031672529876232 ]
  - [   0.0000735393259674, -0.0040554888546467,  0.0032998546957970 ]
  - [   0.0001065385877155, -0.0040457416325808,  0.0032882709056139 ]
  - [   0.0001091462327167, -0.0040653143078089,  0.0033109635114670 ]
  - [   0.0001057830522768, -0.0040550865232944,  0.0032972749322653 ]
  - [   0.0000920109450817, -0.0040616896003485,  0.0032735429704189 ]
  - [   0.0000918470323086, -0.0040498469024897,  0.0033287256956100 ]
  - [   0.0001061409711838, -0.0040556993335485,  0.0033005680888891 ]
  - [   0.0001378659362672,  0.0023174621164799, -0.0022316810209304 ]
  - [   0.0003200030187145,  0.0023062219843268, -0.0022014901041985 ]
  - [   0.0003211442090105,  0.0023238463327289, -0.0022500944323838 ]
  - [   0.0002306185924681,  0.0023145589511842, -0.0022257100790739 ]
  - [   0.0002769477432594,  0.0023118541575968, -0.0022270113695413 ]
  - [   0.0002771173603833,  0.0023173235822469, -0.0022251575719565 ]
  - [   0.0001327016070718,  0.0023136094678193, -0.0022202497348189 ]
  - [   0.0003191562136635,  0.0023245019838214, -0.0022500334307551 ]
  - [   0.0003213178133592,  0.0023064182605594, -0.0022012966219336 ]
  - [   0.0002303212531842,  0.0023156926035881, -0.0022267736494541 ]
  - [   0.0002770124119706,  0.0023178979754448, -0.0022236406803131 ]
  - [   0.0002773104060907,  0.0023131519556046, -0.0022269897162914 ]
  - [   0.0000986247541732,  0.0025030504912138, -0.0037014391273260 ]
  - [   0.0000990375410765,  0.0023294221609831, -0.0034370981156826 ]
  - [  -0.0001327008940279,  0.0024155732244253, -0.0035645011812449 ]
  - [   0.0026613567024469,  0.0004378519952297, -0.0047821477055550 ]
  - [   0.0026899734511971,  0.0044258944690228, -0.0023295469582081 ]
  - [  -0.0000958216842264,  0.0024151541292667, -0.0035675931721926 ]
  - [  -0.0001113619800890,  0.0024218373000622, -0.0035385824739933 ]
  - [  -0.0001138784573413,  0.0024090297520161, -0.0035954173654318 ]
  - [  -0.0000973306596279,  0.0024155192077160, -0.0035693030804396 ]
  - [  -0.0000985491496976,  0.0024047102779150, -0.0035553257912397 ]
  - [  -0.0000983146019280,  0.0024251993745565, -0.0035785287618637 ]
  - [  -0.0000995472073555,  0.0024145711213350, -0.0035647042095661 ]
  - [  -0.0004216388333589, -0.0055911540985107, -0.0136181171983480 ]
  - [  -0.0004116313066334, -0.0063783023506403, -0.0134399700909853 ]
  - [  -0.0010239032562822, -0.0059801917523146, -0.0135315842926502 ]
  - [  -0.0009366974700242, -0.0057882796972990, -0.0136007443070412 ]
  - [  -0.0009333412162960, -0.0061683170497417, -0.0134630482643843 ]
  - [  -0.0010289247147739, -0.0059790667146444, -0.0135326199233532 ]
  - [  -0.0012018119450659, -0.0059966612607241, -0.0138890277594328 ]
  - [  -0.0012013306841254, -0.0059620160609484, -0.0131734106689692 ]
  - [  -0.0010001827031374, -0.0059795901179314, -0.0135322883725166 ]
  - [  -0.0010143080726266, -0.0059791821986437, -0.0135312974452972 ]
  - [  -0.0010133543983102, -0.0059818327426910, -0.0135334320366383 ]
  - [  -0.0010232012718916, -0.0059798173606396, -0.0135329365730286 ]
  - [   0.0007327832281590,  0.0082175955176353,  0.0137270651757717 ]
  - [   0.0007324271136895,  0.0082198753952980,  0.0137291364371777 ]
  - [   0.0007233952637762,  0.0082183424383402,  0.0137280598282814 ]
  - [   0.0005451462930068,  0.0082345716655254,  0.0140830315649509 ]
  - [   0.0005459225503728,  0.0082007404416800,  0.0133710764348507 ]
  - [   0.0007458949694410,  0.0082180164754391,  0.0137280467897654 ]
  - [   0.0008082739077508,  0.0080277007073164,  0.0137964431196451 ]
  - [   0.0008123097941279,  0.0084080956876278,  0.0136598367244005 ]
  - [   0.0007165120914578,  0.0082181710749865,  0.0137283988296986 ]
  - [   0.0013286150060594,  0.0078259650617838,  0.0138159710913897 ]
  - [   0.0013402369804680,  0.0086221657693386,  0.0136318504810333 ]
  - [   0.0007212407654151,  0.0082181952893734,  0.0137287210673094 ]
  - [  -0.0000007078051567,  0.0010353922843933, -0.0012194798327982 ]
  - [  -0.0000182762742043,  0.0008693542331457, -0.0012281159870327 ]
  - [  -0.0000211670994759,  0.0011749230325222, -0.0012208339758217 ]
  - [  -0.0000017955899239,  0.0010079144267365, -0.0012251057196409 ]
  - [  -0.0000202432274818,  0.0011762852082029, -0.0012201657518744 ]
  - [  -0.0000211670994759,  0.0008673835545778, -0.0012233521556482 ]
  - [  -0.0001982375979424,  0.0010233242064714, -0.0012279790826142 ]
  - [  -0.0001320540904999,  0.0010124146938324, -0.0012328000739217 ]
  - [  -0.0001318082213402,  0.0010322649031878, -0.0012049782089889 ]
  - [  -0.0001976490020752,  0.0010242257267237, -0.0012241941876709 ]
  - [  -0.0001285374164581,  0.0010343566536903, -0.0012096408754587 ]
  - [  -0.0001271516084671,  0.0010139271616936, -0.0012416262179613 ]
- atom:    1
  displacement:
    [  -0.0100000000000000,  0.0000000000000000,  0.0000000000000000 ]
  forces:
  - [   0.0144385062158108, -0.0017925500869751,  0.0022589620202780 ]
  - [   0.0017108377069235, -0.0017944334540516,  0.0022608721628785 ]
  - [   0.0017165102763101, -0.0017943438142538,  0.0022615347988904 ]
  - [   0.0013211909681559, -0.0017944797873497,  0.0022609685547650 ]
  - [   0.0010344884358346, -0.0017943754792213,  0.0022615338675678 ]
  - [   0.0010353787802160, -0.0017944560386240,  0.0022611389867961 ]
  - [   0.0010640370892361, -0.0017945901490748,  0.0022617345675826 ]
  - [   0.0010505786631256, -0.0017949219327420,  0.0022615166381001 ]
  - [   0.0010505865793675, -0.0017947843298316,  0.0022617494687438 ]
  - [   0.0010767658241093, -0.0017960737459362,  0.0022616949863732 ]
  - [   0.0010446250671521, -0.0017960038967431,  0.0022615892812610 ]
  - [   0.0010442796628922, -0.0017960474360734,  0.0022616577334702 ]
  - [  -0.0008227768121287, -0.0021405816078186,  0.0012603225186467 ]
  - [  -0.0008998242556117, -0.0021388633176684,  0.0012641553767025 ]
  - [  -0.0008998362463899, -0.0021431930363178,  0.0012536372523755 ]
  - [  -0.0009902040474117, -0.0021436112001538,  0.0012580989859998 ]
  - [  -0.0009835965465754, -0.0021885829046369,  0.0012121386826038 ]
  - [  -0.0009843675652519, -0.0020932615734637,  0.0013054530136287 ]
  - [  -0.0009911954402924, -0.0021391469053924,  0.0012594923609868 ]
  - [  -0.0009830554481596, -0.0020945407450199,  0.0013049377594143 ]
  - [  -0.0009852186776698, -0.0021895337849855,  0.0012112505501136 ]
  - [  -0.0008224226185121, -0.0021406207233667,  0.0012571740662679 ]
  - [  -0.0008999752462842, -0.0021432503126562,  0.0012530150124803 ]
  - [  -0.0008999379933812, -0.0021391320042312,  0.0012636472238228 ]
  - [  -0.0026908025611192, -0.0060741528868675,  0.0020638369023800 ]
  - [  -0.0026548267342150, -0.0020800791680813,  0.0045098662376404 ]
  - [   0.0001009066472761, -0.0040552970021963,  0.0032975580543280 ]
  - [  -0.0000969201792032, -0.0039706062525511,  0.0031708646565676 ]
  - [  -0.0000941333128139, -0.0041426811367273,  0.0034322105348110 ]
  - [   0.0001373912091367, -0.0040554571896791,  0.0032999105751514 ]
  - [   0.0000987944076769, -0.0040662698447704,  0.0033115558326244 ]
  - [   0.0001014833105728, -0.0040448997169733,  0.0032877717167139 ]
  - [   0.0001033202861436, -0.0040551703423262,  0.0032971054315567 ]
  - [   0.0001144185662270, -0.0040497966110706,  0.0033308081328869 ]
  - [   0.0001141168177128, -0.0040616784244776,  0.0032716114073992 ]
  - [   0.0000978074967861, -0.0040557235479355,  0.0033005792647600 ]
  - [   0.0004043467342854,  0.0023177284747362, -0.0022325213067234 ]
  - [   0.0002224650816061,  0.0023245215415955, -0.0022504408843815 ]
  - [   0.0002237502485514,  0.0023059202358127, -0.0022010952234268 ]
  - [   0.0003113177372143,  0.0023147326428443, -0.0022252732887864 ]
  - [   0.0002655317075551,  0.0023168041370809, -0.0022242113482207 ]
  - [   0.0002660680620465,  0.0023121640551835, -0.0022281140554696 ]
  - [   0.0004099832440261,  0.0023130290210247, -0.0022192380856723 ]
  - [   0.0002214860724052,  0.0023061940446496, -0.0022010304965079 ]
  - [   0.0002240007452201,  0.0023245881311595, -0.0022500888444483 ]
  - [   0.0003109207027592,  0.0023158527910709, -0.0022271201014519 ]
  - [   0.0002656027209014,  0.0023128688335419, -0.0022264905273914 ]
  - [   0.0002658669254743,  0.0023180246353149, -0.0022241808474064 ]
  - [  -0.0003002323210239,  0.0023298468440771, -0.0034370645880699 ]
  - [  -0.0002994731767103,  0.0025033298879862, -0.0037014409899712 ]
  - [  -0.0000690113520250,  0.0024158302694559, -0.0035646390169859 ]
  - [  -0.0028955789748579,  0.0044305566698313, -0.0023291148245335 ]
  - [  -0.0028582138475031,  0.0004420112818480, -0.0047766640782356 ]
  - [  -0.0001031540450640,  0.0024153161793947, -0.0035675708204508 ]
  - [  -0.0000888612557901,  0.0024098381400108, -0.0035958066582680 ]
  - [  -0.0000913895200938,  0.0024208463728428, -0.0035382676869631 ]
  - [  -0.0001056782202795,  0.0024155620485544, -0.0035693496465683 ]
  - [  -0.0001063200761564,  0.0024250969290733, -0.0035786237567663 ]
  - [  -0.0001062541268766,  0.0024046134203672, -0.0035552084445953 ]
  - [  -0.0001019397750497,  0.0024147871881723, -0.0035649016499519 ]
  - [  -0.0016254635993391, -0.0063814613968134, -0.0134374685585499 ]
  - [  -0.0016093165613711, -0.0055953394621611, -0.0136156026273966 ]
  - [  -0.0010108684655279, -0.0059803184121847, -0.0135315507650375 ]
  - [  -0.0011011059395969, -0.0061675496399403, -0.0134635102003813 ]
  - [  -0.0010969822760671, -0.0057886838912964, -0.0136003494262695 ]
  - [  -0.0010042670182884, -0.0059790089726448, -0.0135327223688364 ]
  - [  -0.0008324433583766, -0.0059618800878525, -0.0131722092628479 ]
  - [  -0.0008320156484842, -0.0059967879205942, -0.0138876195997000 ]
  - [  -0.0010337615385652, -0.0059796720743179, -0.0135323144495487 ]
  - [  -0.0010204035788774, -0.0059813819825649, -0.0135335400700569 ]
  - [  -0.0010196557268500, -0.0059796236455441, -0.0135314185172319 ]
  - [  -0.0010106787085533, -0.0059798639267683, -0.0135330390185118 ]
  - [   0.0007265619933605,  0.0082195587456226,  0.0137290693819523 ]
  - [   0.0007262505823746,  0.0082177165895700,  0.0137272067368031 ]
  - [   0.0007357798749581,  0.0082183741033077,  0.0137282162904739 ]
  - [   0.0009125553769991,  0.0082006063312292,  0.0133708845824003 ]
  - [   0.0009129388490692,  0.0082346033304930,  0.0140826553106308 ]
  - [   0.0007128310389817,  0.0082180108875036,  0.0137280430644751 ]
  - [   0.0006460049189627,  0.0084076672792435,  0.0136604569852352 ]
  - [   0.0006510112434626,  0.0080282054841518,  0.0137964226305485 ]
  - [   0.0007412567501888,  0.0082181338220835,  0.0137284360826015 ]
  - [   0.0001161848194897,  0.0086234975606203,  0.0136316213756800 ]
  - [   0.0001297271810472,  0.0078266169875860,  0.0138157606124878 ]
  - [   0.0007345210760832,  0.0082182325422764,  0.0137287992984056 ]
  - [  -0.0003018975257874,  0.0010418668389320, -0.0012203436344862 ]