phonopy:
  version: "2.37.1"
  frequency_unit_conversion_factor: 15.633302
  symmetry_tolerance: 1.00000e-05

space_group:
  type: "P1"
  number: 1
  Hall_symbol: "P 1"

primitive_matrix:
- [ -1.000000000000000, -1.000000000000000,  0.000000000000000 ]
- [  0.000000000000000,  0.000000000000000, -1.000000000000000 ]
- [  0.000000000000000, -1.000000000000000,  0.000000000000000 ]

supercell_matrix:
- [   3,   0,   0 ]
- [   0,   1,   0 ]
- [   0,   0,   2 ]

primitive_cell:
  lattice:
  - [    -4.771660223312123,     0.000000000000000,     0.000000000000000 ] # a
  - [    -2.385655461794019,     0.000021793183443,    -4.824951309570521 ] # b
  - [    -0.000291536372293,   -10.038538989633540,     0.000000000000000 ] # c
  points:
  - symbol: Li # 1
    coordinates: [  0.712865736061281,  0.753816931544521,  0.019274393801615 ]
    mass: 6.940000
  - symbol: Li # 2
    coordinates: [  0.712875974550040,  0.753829407091528,  0.550217693865989 ]
    mass: 6.940000
  - symbol: Li # 3
    coordinates: [  0.891037298460191,  0.397835958141044,  0.784741922791659 ]
    mass: 6.940000
  - symbol: Li # 4
    coordinates: [  0.545714186197901,  0.087775999643161,  0.284736366584738 ]
    mass: 6.940000
  - symbol: Li # 5
    coordinates: [  0.539499282591536,  0.100945184947895,  0.784752030637494 ]
    mass: 6.940000
  - symbol: Li # 6
    coordinates: [  0.194184131962336,  0.790870442619568,  0.284741169703227 ]
    mass: 6.940000
  - symbol: Li # 7
    coordinates: [  0.372343684776826,  0.434889783693260,  0.519270954989890 ]
    mass: 6.940000
  - symbol: Li # 8
    coordinates: [  0.372326210376325,  0.434890617740642,  0.050208315217644 ]
    mass: 6.940000
  - symbol: Sn # 9
    coordinates: [  0.861420759252349,  0.456391458025064,  0.284745102521262 ]
    mass: 118.710000
  - symbol: Sn # 10
    coordinates: [  0.042610395537435,  0.094357956485568,  0.534741504396903 ]
    mass: 118.710000
  - symbol: Sn # 11
    coordinates: [  0.042595523873157,  0.094353908348082,  0.034741681527373 ]
    mass: 118.710000
  - symbol: Sn # 12
    coordinates: [  0.223793041804543,  0.732328392527506,  0.784739110896881 ]
    mass: 118.710000
  reciprocal_lattice: # without 2pi
  - [    -0.209570663710392,     0.000006086291153,     0.103620402894726 ] # a*
  - [    -0.000000000000000,    -0.000000000000000,    -0.207255977488613 ] # b*
  - [    -0.000000000000000,    -0.099616089655344,    -0.000000449942720 ] # c*

unit_cell:
  lattice:
  - [     4.771660223312123,     0.000000000000000,     0.000000000000000 ] # a
  - [     0.000291536372293,    10.038538989633539,     0.000000000000000 ] # b
  - [    -2.386004761518104,    -0.000021793183443,     4.824951309570520 ] # c
  points:
  - symbol: Li # 1
    coordinates: [  0.533317332394198,  0.980725606198385,  0.246183068455479 ]
    mass: 6.940000
    reduced_to: 1
  - symbol: Li # 2
    coordinates: [  0.533294618358432,  0.449782306134011,  0.246170592908472 ]
    mass: 6.940000
    reduced_to: 2
  - symbol: Li # 3
    coordinates: [  0.711126743398765,  0.215258077208341,  0.602164041858956 ]
    mass: 6.940000
    reduced_to: 3
  - symbol: Li # 4
    coordinates: [  0.366509814158938,  0.715263633415262,  0.912224000356839 ]
    mass: 6.940000
    reduced_to: 4
  - symbol: Li # 5
    coordinates: [  0.359555532460569,  0.215247969362506,  0.899054815052105 ]
    mass: 6.940000
    reduced_to: 5
  - symbol: Li # 6
    coordinates: [  0.014945425418096,  0.715258830296773,  0.209129557380432 ]
    mass: 6.940000
    reduced_to: 6
  - symbol: Li # 7
    coordinates: [  0.192766531529913,  0.480729045010110,  0.565110216306740 ]
    mass: 6.940000
    reduced_to: 7
  - symbol: Li # 8
    coordinates: [  0.192783171883034,  0.949791684782356,  0.565109382259359 ]
    mass: 6.940000
    reduced_to: 8
  - symbol: Sn # 9
    coordinates: [  0.682187782722587,  0.715254897478738,  0.543608541974936 ]
    mass: 118.710000
    reduced_to: 9
  - symbol: Sn # 10
    coordinates: [  0.863031647976997,  0.465258495603097,  0.905642043514433 ]
    mass: 118.710000
    reduced_to: 10
  - symbol: Sn # 11
    coordinates: [  0.863050567778760,  0.965258318472627,  0.905646091651918 ]
    mass: 118.710000
    reduced_to: 11
  - symbol: Sn # 12
    coordinates: [  0.043878565667952,  0.215260889103119,  0.267671607472494 ]
    mass: 118.710000
    reduced_to: 12

supercell:
  lattice:
  - [    14.314980669936370,     0.000000000000000,     0.000000000000000 ] # a
  - [     0.000291536372293,    10.038538989633539,     0.000000000000000 ] # b
  - [    -4.772009523036208,    -0.000043586366886,     9.649902619141040 ] # c
  points:
  - symbol: Li # 1
    coordinates: [  0.177772444131399,  0.980725606198385,  0.123091534227740 ]
    mass: 6.940000
    reduced_to: 1
  - symbol: Li # 2
    coordinates: [  0.511105777464733,  0.980725606198385,  0.123091534227740 ]
    mass: 6.940000
    reduced_to: 1
  - symbol: Li # 3
    coordinates: [  0.844439110798066,  0.980725606198385,  0.123091534227740 ]
    mass: 6.940000
    reduced_to: 1
  - symbol: Li # 4
    coordinates: [  0.177772444131399,  0.980725606198385,  0.623091534227740 ]
    mass: 6.940000
    reduced_to: 1
  - symbol: Li # 5
    coordinates: [  0.511105777464733,  0.980725606198385,  0.623091534227740 ]
    mass: 6.940000
    reduced_to: 1
  - symbol: Li # 6
    coordinates: [  0.844439110798066,  0.980725606198385,  0.623091534227740 ]
    mass: 6.940000
    reduced_to: 1
  - symbol: Li # 7
    coordinates: [  0.177764872786144,  0.449782306134011,  0.123085296454236 ]
    mass: 6.940000
    reduced_to: 7
  - symbol: Li # 8
    coordinates: [  0.511098206119477,  0.449782306134011,  0.123085296454236 ]
    mass: 6.940000
    reduced_to: 7
  - symbol: Li # 9
    coordinates: [  0.844431539452811,  0.449782306134011,  0.123085296454236 ]
    mass: 6.940000
    reduced_to: 7
  - symbol: Li # 10
    coordinates: [  0.177764872786144,  0.449782306134011,  0.623085296454236 ]
    mass: 6.940000
    reduced_to: 7
  - symbol: Li # 11
    coordinates: [  0.511098206119477,  0.449782306134011,  0.623085296454236 ]
    mass: 6.940000
    reduced_to: 7
  - symbol: Li # 12
    coordinates: [  0.844431539452811,  0.449782306134011,  0.623085296454236 ]
    mass: 6.940000
    reduced_to: 7
  - symbol: Li # 13
    coordinates: [  0.237042247799588,  0.215258077208341,  0.301082020929478 ]
    mass: 6.940000
    reduced_to: 13
  - symbol: Li # 14
    coordinates: [  0.570375581132922,  0.215258077208341,  0.301082020929478 ]
    mass: 6.940000
    reduced_to: 13
  - symbol: Li # 15
    coordinates: [  0.903708914466255,  0.215258077208341,  0.301082020929478 ]
    mass: 6.940000
    reduced_to: 13
  - symbol: Li # 16
    coordinates: [  0.237042247799588,  0.215258077208341,  0.801082020929478 ]
    mass: 6.940000
    reduced_to: 13
  - symbol: Li # 17
    coordinates: [  0.570375581132922,  0.215258077208341,  0.801082020929478 ]
    mass: 6.940000
    reduced_to: 13
  - symbol: Li # 18
    coordinates: [  0.903708914466255,  0.215258077208341,  0.801082020929478 ]
    mass: 6.940000
    reduced_to: 13
  - symbol: Li # 19
    coordinates: [  0.122169938052979,  0.715263633415262,  0.456112000178419 ]
    mass: 6.940000
    reduced_to: 19
  - symbol: Li # 20
    coordinates: [  0.455503271386313,  0.715263633415262,  0.456112000178419 ]
    mass: 6.940000
    reduced_to: 19
  - symbol: Li # 21
    coordinates: [  0.788836604719646,  0.715263633415262,  0.456112000178419 ]
    mass: 6.940000
    reduced_to: 19
  - symbol: Li # 22
    coordinates: [  0.122169938052979,  0.715263633415262,  0.956112000178419 ]
    mass: 6.940000
    reduced_to: 19
  - symbol: Li # 23
    coordinates: [  0.455503271386313,  0.715263633415262,  0.956112000178419 ]
    mass: 6.940000
    reduced_to: 19
  - symbol: Li # 24
    coordinates: [  0.788836604719646,  0.715263633415262,  0.956112000178419 ]
    mass: 6.940000
    reduced_to: 19
  - symbol: Li # 25
    coordinates: [  0.119851844153523,  0.215247969362506,  0.449527407526053 ]
    mass: 6.940000
    reduced_to: 25
  - symbol: Li # 26
    coordinates: [  0.453185177486856,  0.215247969362506,  0.449527407526053 ]
    mass: 6.940000
    reduced_to: 25
  - symbol: Li # 27
    coordinates: [  0.786518510820189,  0.215247969362506,  0.449527407526053 ]
    mass: 6.940000
    reduced_to: 25
  - symbol: Li # 28
    coordinates: [  0.119851844153523,  0.215247969362506,  0.949527407526053 ]
    mass: 6.940000
    reduced_to: 25
  - symbol: Li # 29
    coordinates: [  0.453185177486856,  0.215247969362506,  0.949527407526053 ]
    mass: 6.940000
    reduced_to: 25
  - symbol: Li # 30
    coordinates: [  0.786518510820189,  0.215247969362506,  0.949527407526053 ]
    mass: 6.940000
    reduced_to: 25
  - symbol: Li # 31
    coordinates: [  0.004981808472699,  0.715258830296773,  0.104564778690216 ]
    mass: 6.940000
    reduced_to: 31
  - symbol: Li # 32
    coordinates: [  0.338315141806032,  0.715258830296773,  0.104564778690216 ]
    mass: 6.940000
    reduced_to: 31
  - symbol: Li # 33
    coordinates: [  0.671648475139365,  0.715258830296773,  0.104564778690216 ]
    mass: 6.940000
    reduced_to: 31
  - symbol: Li # 34
    coordinates: [  0.004981808472699,  0.715258830296773,  0.604564778690216 ]
    mass: 6.940000
    reduced_to: 31
  - symbol: Li # 35
    coordinates: [  0.338315141806032,  0.715258830296773,  0.604564778690216 ]
    mass: 6.940000
    reduced_to: 31
  - symbol: Li # 36
    coordinates: [  0.671648475139365,  0.715258830296773,  0.604564778690216 ]
    mass: 6.940000
    reduced_to: 31
  - symbol: Li # 37
    coordinates: [  0.064255510509971,  0.480729045010110,  0.282555108153370 ]
    mass: 6.940000
    reduced_to: 37
  - symbol: Li # 38
    coordinates: [  0.397588843843304,  0.480729045010110,  0.282555108153370 ]
    mass: 6.940000
    reduced_to: 37
  - symbol: Li # 39
    coordinates: [  0.730922177176638,  0.480729045010110,  0.282555108153370 ]
    mass: 6.940000
    reduced_to: 37
  - symbol: Li # 40
    coordinates: [  0.064255510509971,  0.480729045010110,  0.782555108153370 ]
    mass: 6.940000
    reduced_to: 37
  - symbol: Li # 41
    coordinates: [  0.397588843843304,  0.480729045010110,  0.782555108153370 ]
    mass: 6.940000
    reduced_to: 37
  - symbol: Li # 42
    coordinates: [  0.730922177176638,  0.480729045010110,  0.782555108153370 ]
    mass: 6.940000
    reduced_to: 37
  - symbol: Li # 43
    coordinates: [  0.064261057294345,  0.949791684782356,  0.282554691129679 ]
    mass: 6.940000
    reduced_to: 43
  - symbol: Li # 44
    coordinates: [  0.397594390627678,  0.949791684782356,  0.282554691129679 ]
    mass: 6.940000
    reduced_to: 43
  - symbol: Li # 45
    coordinates: [  0.730927723961011,  0.949791684782356,  0.282554691129679 ]
    mass: 6.940000
    reduced_to: 43
  - symbol: Li # 46
    coordinates: [  0.064261057294345,  0.949791684782356,  0.782554691129679 ]
    mass: 6.940000
    reduced_to: 43
  - symbol: Li # 47
    coordinates: [  0.397594390627678,  0.949791684782356,  0.782554691129679 ]
    mass: 6.940000
    reduced_to: 43
  - symbol: Li # 48
    coordinates: [  0.730927723961011,  0.949791684782356,  0.782554691129679 ]
    mass: 6.940000
    reduced_to: 43
  - symbol: Sn # 49
    coordinates: [  0.227395927574196,  0.715254897478738,  0.271804270987468 ]
    mass: 118.710000
    reduced_to: 49
  - symbol: Sn # 50
    coordinates: [  0.560729260907529,  0.715254897478738,  0.271804270987468 ]
    mass: 118.710000
    reduced_to: 49
  - symbol: Sn # 51
    coordinates: [  0.894062594240862,  0.715254897478738,  0.271804270987468 ]
    mass: 118.710000
    reduced_to: 49
  - symbol: Sn # 52
    coordinates: [  0.227395927574196,  0.715254897478738,  0.771804270987468 ]
    mass: 118.710000
    reduced_to: 49
  - symbol: Sn # 53
    coordinates: [  0.560729260907529,  0.715254897478738,  0.771804270987468 ]
    mass: 118.710000
    reduced_to: 49
  - symbol: Sn # 54
    coordinates: [  0.894062594240862,  0.715254897478738,  0.771804270987468 ]
    mass: 118.710000
    reduced_to: 49
  - symbol: Sn # 55
    coordinates: [  0.287677215992332,  0.465258495603097,  0.452821021757216 ]
    mass: 118.710000
    reduced_to: 55
  - symbol: Sn # 56
    coordinates: [  0.621010549325666,  0.465258495603097,  0.452821021757216 ]
    mass: 118.710000
    reduced_to: 55
  - symbol: Sn # 57
    coordinates: [  0.954343882658999,  0.465258495603097,  0.452821021757216 ]
    mass: 118.710000
    reduced_to: 55
  - symbol: Sn # 58
    coordinates: [  0.287677215992332,  0.465258495603097,  0.952821021757216 ]
    mass: 118.710000
    reduced_to: 55
  - symbol: Sn # 59
    coordinates: [  0.621010549325666,  0.465258495603097,  0.952821021757216 ]
    mass: 118.710000
    reduced_to: 55
  - symbol: Sn # 60
    coordinates: [  0.954343882658999,  0.465258495603097,  0.952821021757216 ]
    mass: 118.710000
    reduced_to: 55
  - symbol: Sn # 61
    coordinates: [  0.287683522592920,  0.965258318472627,  0.452823045825959 ]
    mass: 118.710000
    reduced_to: 61
  - symbol: Sn # 62
    coordinates: [  0.621016855926253,  0.965258318472627,  0.452823045825959 ]
    mass: 118.710000
    reduced_to: 61
  - symbol: Sn # 63
    coordinates: [  0.954350189259587,  0.965258318472627,  0.452823045825959 ]
    mass: 118.710000
    reduced_to: 61
  - symbol: Sn # 64
    coordinates: [  0.287683522592920,  0.965258318472627,  0.952823045825959 ]
    mass: 118.710000
    reduced_to: 61
  - symbol: Sn # 65
    coordinates: [  0.621016855926253,  0.965258318472627,  0.952823045825959 ]
    mass: 118.710000
    reduced_to: 61
  - symbol: Sn # 66
    coordinates: [  0.954350189259587,  0.965258318472627,  0.952823045825959 ]
    mass: 118.710000
    reduced_to: 61
  - symbol: Sn # 67
    coordinates: [  0.014626188555984,  0.215260889103119,  0.133835803736247 ]
    mass: 118.710000
    reduced_to: 67
  - symbol: Sn # 68
    coordinates: [  0.347959521889317,  0.215260889103119,  0.133835803736247 ]
    mass: 118.710000
    reduced_to: 67
  - symbol: Sn # 69
    coordinates: [  0.681292855222650,  0.215260889103119,  0.133835803736247 ]
    mass: 118.710000
    reduced_to: 67
  - symbol: Sn # 70
    coordinates: [  0.014626188555984,  0.215260889103119,  0.633835803736247 ]
    mass: 118.710000
    reduced_to: 67
  - symbol: Sn # 71
    coordinates: [  0.347959521889317,  0.215260889103119,  0.633835803736247 ]
    mass: 118.710000
    reduced_to: 67
  - symbol: Sn # 72
    coordinates: [  0.681292855222650,  0.215260889103119,  0.633835803736247 ]
    mass: 118.710000
    reduced_to: 67

displacements:
- atom:    1
  displacement:
    [   0.0100000000000000,  0.0000000000000000,  0.0000000000000000 ]
  forces:
  - [  -0.0256499834358692, -0.0002933898940682,  0.0109755471348763 ]
  - [  -0.0004504870157689, -0.0002393075264990,  0.0105253532528877 ]
  - [  -0.0004315020050853, -0.0003362149000168,  0.0110902711749077 ]
  - [   0.0003918914590031, -0.0003600753843784,  0.0110018514096737 ]
  - [   0.0001289674546570, -0.0002789217978716,  0.0109548829495907 ]
  - [   0.0001281877048314, -0.0002283807843924,  0.0104679986834526 ]
  - [  -0.0001119573134929,  0.0003062225878239,  0.0108291469514370 ]
  - [  -0.0001766476780176,  0.0001264624297619,  0.0108289569616318 ]
  - [  -0.0001706977491267,  0.0004765628837049,  0.0108301863074303 ]
  - [   0.0000399433774874,  0.0002904059365392,  0.0108144693076611 ]
  - [   0.0000386401079595,  0.0003095669671893,  0.0108393803238869 ]
  - [   0.0000389763154089,  0.0003079026937485,  0.0108349509537220 ]
  - [  -0.0005972340004519, -0.0000226095489779,  0.0048161372542381 ]
  - [  -0.0000942203405430,  0.0000660686782794,  0.0047548487782478 ]
  - [  -0.0000869099822012, -0.0000772262646933,  0.0049103721976280 ]
  - [   0.0000531096011400, -0.0004527413693722,  0.0050771981477737 ]
  - [  -0.0000786676537246, -0.0000026040652301,  0.0048395916819572 ]
  - [   0.0000622646184638,  0.0004291618242860,  0.0045823529362679 ]
  - [   0.0001157105434686, -0.0000818127300590,  0.0047338688746095 ]
  - [   0.0001286645419896,  0.0000376505777240,  0.0046707456931472 ]
  - [  -0.0000092874979600, -0.0000407675397582,  0.0046752435155213 ]
  - [  -0.0001328017096967, -0.0000348042231053,  0.0046966783702374 ]
  - [   0.0000381211284548, -0.0000423279125243,  0.0046576922759414 ]
  - [   0.0000358009710908, -0.0000203556846827,  0.0047316951677203 ]
  - [  -0.0000238005304709,  0.0002149547799490, -0.0046153143048286 ]
  - [  -0.0000193234300241, -0.0001549955049995, -0.0047239270061255 ]
  - [  -0.0000620201462880,  0.0000404808852181, -0.0046587418764830 ]
  - [  -0.0005796903860755,  0.0000248896576522, -0.0046562287025154 ]
  - [  -0.0000423475139542,  0.0000411701184930, -0.0046155857853591 ]
  - [  -0.0000461651143269,  0.0000289881281788, -0.0047134892083704 ]
  - [   0.0001864238438429, -0.0000483021140099, -0.0050859898328781 ]
  - [   0.0001884663361125,  0.0000387695617974, -0.0047486126422882 ]
  - [   0.0000358776451321, -0.0000045783817768, -0.0049152225255966 ]
  - [   0.0001057515619323, -0.0000145597150549, -0.0049233287572861 ]
  - [  -0.0000076456344686,  0.0000123415375128, -0.0048816874623299 ]
  - [   0.0000332256313413, -0.0000098989112303, -0.0049410536885262 ]
  - [   0.0001423663634341, -0.0003798562102020, -0.0108333639800549 ]
  - [   0.0001449079718441, -0.0001997249200940, -0.0107999108731747 ]
  - [  -0.0001033055305015, -0.0002886988222599, -0.0108149908483028 ]
  - [  -0.0000664517719997, -0.0002915710210800, -0.0108180530369282 ]
  - [  -0.0000416634065914, -0.0002769082784653, -0.0108008645474911 ]
  - [  -0.0000423337696702, -0.0003016293048859, -0.0108300596475601 ]
  - [   0.0041398657485843,  0.0008301902562380, -0.0135697089135647 ]
  - [   0.0042020576074719, -0.0002860450185835, -0.0080310553312302 ]
  - [  -0.0000560578628210,  0.0002694148570299, -0.0108306668698788 ]
  - [  -0.0000019544168026,  0.0002722349017859, -0.0108251236379147 ]
  - [  -0.0005479132523760,  0.0003029052168131, -0.0105261541903019 ]
  - [  -0.0005065446021035,  0.0002326928079128, -0.0111469514667988 ]
  - [  -0.0000838720006868,  0.0000650009023957, -0.0116644650697708 ]
  - [  -0.0001075730106095,  0.0000648422865197, -0.0116753168404102 ]
  - [  -0.0001163730194094,  0.0000181034847628, -0.0116229131817818 ]
  - [  -0.0000705041020410, -0.0004032552242279, -0.0120338350534439 ]
  - [  -0.0000139466865221,  0.0000442340970039, -0.0116414315998554 ]
  - [  -0.0000633577365079,  0.0004949681460857, -0.0112744644284248 ]
  - [  -0.0000920226593735,  0.0000455994158983, -0.0000014360994101 ]
  - [   0.0000303979577438,  0.0000858232378960, -0.0000075567513704 ]
  - [   0.0000584018125664, -0.0000287899747491, -0.0000310782343149 ]
  - [  -0.0000268677249551,  0.0001304242759943, -0.0000088289380074 ]
  - [   0.0000045280903578,  0.0000332668423653, -0.0000145137310028 ]
  - [  -0.0000291494652629, -0.0000721318647265, -0.0000075753778219 ]
  - [   0.0004382235929370, -0.0000475498382002, -0.0001072476152331 ]
  - [  -0.0001780778984539, -0.0001722545130178, -0.0001550306333229 ]
  - [  -0.0001772725809133,  0.0001056037144735,  0.0001291491789743 ]
  - [   0.0091475844383240, -0.0000584735535085, -0.0059843175113201 ]
  - [   0.0000884374603629, -0.0000398713164032, -0.0000494924606755 ]
  - [   0.0089123193174601, -0.0000322471605614,  0.0056987265124917 ]
  - [   0.0008959993720055, -0.0001117251813412,  0.0115109793841839 ]
  - [   0.0009542675688863,  0.0001004040241241,  0.0120325982570648 ]
  - [   0.0000973464921117, -0.0000261664390564,  0.0117647014558315 ]
  - [   0.0000017769634724, -0.0000365581363440,  0.0117465555667877 ]
  - [   0.0000095721334219,  0.0000228211283684,  0.0117423534393311 ]
  - [   0.0000784909352660, -0.0000728387385607,  0.0118210762739182 ]
- atom:    1
  displacement:
    [  -0.0100000000000000,  0.0000000000000000,  0.0000000000000000 ]
  forces:
  - [   0.0256608519703150, -0.0002835420891643,  0.0109904371201992 ]
  - [   0.0004420814802870, -0.0003352984786034,  0.0110875517129898 ]
  - [   0.0004610539181158, -0.0002390956506133,  0.0105234794318676 ]
  - [  -0.0003821173449978, -0.0002185031771660,  0.0106174387037754 ]
  - [  -0.0001189954346046, -0.0002988269552588,  0.0106569826602936 ]
  - [  -0.0001197565579787, -0.0003499258309603,  0.0111509300768375 ]
  - [   0.0001890278945211,  0.0003065965138376,  0.0108305141329765 ]
  - [   0.0002475696092006,  0.0004758592694998,  0.0108290761709213 ]
  - [   0.0002537429681979,  0.0001253765076399,  0.0108286961913109 ]
  - [   0.0000386085594073,  0.0003141453489661,  0.0108443573117256 ]
  - [   0.0000393586233258,  0.0002973172813654,  0.0108206607401371 ]
  - [   0.0000396489631385,  0.0002964325249195,  0.0108238458633423 ]
  - [   0.0004998254589736, -0.0000198843954422,  0.0048270374536514 ]
  - [  -0.0000091186248028, -0.0000776857850724,  0.0049068257212639 ]
  - [  -0.0000094827337307,  0.0000663209357299,  0.0047513321042061 ]
  - [  -0.0001497592311352,  0.0004322656313889,  0.0045905411243439 ]
  - [  -0.0000184486852959, -0.0000093922644737,  0.0048229098320007 ]
  - [  -0.0001641737762839, -0.0004496778419707,  0.0050858631730080 ]
  - [  -0.0000955320429057,  0.0000271894969046,  0.0046507804654539 ]
  - [  -0.0001087399432436, -0.0000925075728446,  0.0047135171480477 ]
  - [   0.0000314558856189, -0.0000190433347598,  0.0047151241451502 ]
  - [   0.0001531313173473, -0.0000321546103805,  0.0046972958371043 ]
  - [  -0.0000156078021973, -0.0000209452118725,  0.0047317445278168 ]
  - [  -0.0000171344727278, -0.0000425807666034,  0.0046570617705584 ]
  - [  -0.0000076849246398, -0.0001481295912527, -0.0047164037823677 ]
  - [  -0.0000106320949271,  0.0002211170067312, -0.0046086451038718 ]
  - [   0.0000336621887982,  0.0000274742014881, -0.0046716947108507 ]
  - [   0.0005510170012712,  0.0000261911409325, -0.0046571851707995 ]
  - [   0.0000141734635690,  0.0000305908179143, -0.0047141686081886 ]
  - [   0.0000145333033288,  0.0000423138262704, -0.0046166423708200 ]
  - [  -0.0000758219102863,  0.0000387146137655, -0.0047493278980255 ]
  - [  -0.0000726039725123, -0.0000486150383949, -0.0050848647952080 ]
  - [   0.0000793066719780, -0.0000046771019697, -0.0049159973859787 ]
  - [   0.0000081223552115,  0.0000067927176133, -0.0049081444740295 ]
  - [   0.0001218435936607, -0.0000216388143599, -0.0049490928649902 ]
  - [   0.0000797225511633,  0.0000023470493034, -0.0048891380429268 ]
  - [  -0.0002158839633921, -0.0001987712457776, -0.0107992179691792 ]
  - [  -0.0002192938118242, -0.0003781910054386, -0.0108322203159332 ]
  - [   0.0000296330108540, -0.0002901735715568, -0.0108164176344872 ]
  - [  -0.0000079588280641, -0.0002889744937420, -0.0108157582581043 ]
  - [  -0.0000322584892274, -0.0003041028976440, -0.0108309797942638 ]
  - [  -0.0000311097464873, -0.0002781413495541, -0.0108023472130299 ]
  - [  -0.0042016264051199, -0.0002890587784350, -0.0080321915447712 ]
  - [  -0.0041553950868547,  0.0008277962915599, -0.0135704390704632 ]
  - [   0.0000524200877408,  0.0002716155722737, -0.0108265355229378 ]
  - [  -0.0000024691689759,  0.0002683773636818, -0.0108369328081608 ]
  - [   0.0005570244975388,  0.0002350099384785, -0.0111381635069847 ]
  - [   0.0004884248482995,  0.0003043785691261, -0.0105224698781967 ]
  - [   0.0000149458646774,  0.0000668592110742, -0.0116639658808708 ]
  - [   0.0000426529149991,  0.0000175615132321, -0.0116243772208691 ]
  - [   0.0000360538833775,  0.0000637308403384, -0.0116765238344669 ]
  - [   0.0000020268125809,  0.0004944242537022, -0.0112674385309219 ]
  - [  -0.0000579313018534,  0.0000457353889942, -0.0116588845849037 ]
  - [  -0.0000065871354309, -0.0004051029682159, -0.0120248049497604 ]
  - [   0.0000792529535829,  0.0000186804682016, -0.0000221598893404 ]
  - [  -0.0000427610175393, -0.0000167470425367, -0.0000213468447328 ]
  - [  -0.0000724355631974,  0.0000989511609077,  0.0000033956021070 ]
  - [   0.0000166995450854, -0.0000718208029866, -0.0000098412856460 ]
  - [  -0.0000167172402143,  0.0000363178551197, -0.0000114375725389 ]
  - [   0.0000167321413755,  0.0001305527985096, -0.0000108676031232 ]
  - [  -0.0004356333229225, -0.0000274063786492,  0.0000001351581886 ]
  - [   0.0001812284463085,  0.0000972892157733,  0.0000759159447625 ]
  - [   0.0001686830073595, -0.0001830535475165, -0.0002113414229825 ]
  - [  -0.0089140199124813, -0.0000341521808878,  0.0056895497255027 ]
  - [  -0.0000921795144677, -0.0000420404830948, -0.0000380126293749 ]
  - [  -0.0091528249904513, -0.0000597971957177, -0.0059935129247606 ]
  - [  -0.0008750865235925,  0.0000955946743488,  0.0120282284915447 ]
  - [  -0.0008327532559633, -0.0001155696809292,  0.0115077197551727 ]
  - [  -0.0000229803845286, -0.0000282898545265,  0.0117701925337315 ]
  - [   0.0000698650255799, -0.0000217799097300,  0.0117932669818401 ]
  - [   0.0000587292015553, -0.0000795349478722,  0.0117973908782005 ]
  - [  -0.0000095330178738,  0.0000149132683873,  0.0117196515202522 ]
- atom:    1
  displacement:
    [   0.0000002904171339,  0.0099999999957829,  0.0000000000000000 ]
  forces:
  - [  -0.0000008270144463, -0.0119193112477660,  0.0139400772750378 ]
  - [  -0.0000426123151556, -0.0002514673396945,  0.0107519030570984 ]
  - [   0.0000525342766196, -0.0002520144917071,  0.0107505097985268 ]
  - [  -0.0000663035316393, -0.0003176275640726,  0.0108078233897686 ]
  - [   0.0000661426456645, -0.0003009149804711,  0.0108874328434467 ]
  - [   0.0000148054677993, -0.0003003347665071,  0.0107323639094830 ]
  - [   0.0000387141190004,  0.0009600650519133,  0.0109265707433224 ]
  - [  -0.0001403169881087,  0.0000968514941633,  0.0108227133750916 ]
  - [   0.0002163004828617,  0.0000968272797763,  0.0108222290873528 ]
  - [   0.0000510555692017,  0.0002740537747741,  0.0108484439551830 ]
  - [   0.0000335549702868,  0.0002880468964577,  0.0108688138425350 ]
  - [   0.0000331250485033,  0.0002870596945286,  0.0108083374798298 ]
  - [  -0.0000513745690114,  0.0031404041219503,  0.0079080387949944 ]
  - [  -0.0001487660192652,  0.0000798462860985,  0.0046731382608414 ]
  - [   0.0000500342503074,  0.0000802251161076,  0.0046868547797203 ]
  - [  -0.0001860026968643, -0.0000267666837317,  0.0049279853701591 ]
  - [  -0.0000641357619315, -0.0000060333381953,  0.0048399493098259 ]
  - [   0.0001028209226206, -0.0000284362540697,  0.0049260407686234 ]
  - [   0.0000350830378011, -0.0000067213550210,  0.0045416601933539 ]
  - [  -0.0000181726645678, -0.0000074612908065,  0.0045571327209473 ]
  - [   0.0000141989439726, -0.0000347000895999,  0.0046763219870627 ]
  - [   0.0000094673596323,  0.0015858103288338,  0.0059932162985206 ]
  - [  -0.0000627604313195,  0.0000220378860831,  0.0046685663983226 ]
  - [   0.0000835030805320,  0.0000238420907408,  0.0046757292002439 ]
  - [   0.0000843356829137, -0.0000454340479337, -0.0045955702662468 ]
  - [  -0.0001115773338825, -0.0000453815846413, -0.0045795924961567 ]
  - [  -0.0000177400652319,  0.0000399895579903, -0.0046982709318399 ]
  - [  -0.0000146464008139,  0.0035056229680777, -0.0078016924671829 ]
  - [  -0.0000477561552543,  0.0001464534725528, -0.0045554004609585 ]
  - [   0.0000166484824149,  0.0001448303955840, -0.0045185424387455 ]
  - [   0.0000594572775299, -0.0001675267703831, -0.0047792047262192 ]
  - [   0.0000555439764867, -0.0001683803275228, -0.0047810077667236 ]
  - [   0.0000578429971938, -0.0000030086375773, -0.0049206241965294 ]
  - [   0.0000489670201205,  0.0000243942486122, -0.0049150064587593 ]
  - [   0.0000868787756190,  0.0000325483269989, -0.0051250010728836 ]
  - [   0.0000344134168699, -0.0000016221310943, -0.0049309432506561 ]
  - [   0.0000501901522512,  0.0001091267913580, -0.0107828155159950 ]
  - [  -0.0001227636821568,  0.0001093465834856, -0.0107831507921219 ]
  - [  -0.0000375215749955, -0.0002929158508778, -0.0108333341777325 ]
  - [  -0.0000358014804078, -0.0006911121308804, -0.0108579955995083 ]
  - [  -0.0000504347481183, -0.0003242976963520, -0.0108150579035282 ]
  - [  -0.0000251364108408, -0.0002736784517765, -0.0108003988862038 ]
  - [   0.0005623509059660,  0.0000688498839736, -0.0113292485475540 ]
  - [  -0.0005673393607140,  0.0000711418688297, -0.0113299265503883 ]
  - [  -0.0000028706999728,  0.0002685170620680, -0.0108426585793495 ]
  - [  -0.0000002841261448,  0.0004165377467871, -0.0106969214975834 ]
  - [   0.0000321972038364,  0.0002152733504772, -0.0108005963265896 ]
  - [  -0.0000391383073293,  0.0002044234424829, -0.0108507014811039 ]
  - [  -0.0000384148588637,  0.0048884982243180, -0.0142079293727875 ]
  - [   0.0000528119999217,  0.0000930681126192, -0.0115830972790718 ]
  - [  -0.0001245922903763,  0.0000947769149207, -0.0115875899791718 ]
  - [  -0.0000797483808128,  0.0002607628703117, -0.0114206559956074 ]
  - [  -0.0000414402820752,  0.0000407770276070, -0.0116547271609306 ]
  - [   0.0000166971440194,  0.0002705641090870, -0.0114239528775215 ]
  - [   0.0000010850526451, -0.0014955038204789,  0.0006429180502892 ]
  - [   0.0000222095550271,  0.0000439453870058,  0.0000436715781689 ]
  - [  -0.0000433120949310,  0.0000031013041735,  0.0000464366748929 ]
  - [  -0.0000149598345160,  0.0000731246545911, -0.0002272641286254 ]
  - [  -0.0000020135194063,  0.0000312523916364, -0.0000111097469926 ]
  - [  -0.0000023283064365,  0.0000750236213207, -0.0002366537228227 ]
  - [   0.0000112795605673,  0.0000813475344330, -0.0015795127255842 ]
  - [   0.0000729125749785, -0.0000505876960233,  0.0000431002117693 ]
  - [  -0.0000859923311509, -0.0000104033388197,  0.0000202477676794 ]
  - [   0.0002929978072643,  0.0000035710399970, -0.0002512766513973 ]
  - [  -0.0000006202608347, -0.0000366154126823, -0.0000389410415664 ]
  - [  -0.0002946564927697,  0.0000027068890631, -0.0002540658460930 ]
  - [   0.0003290884196758, -0.0007343329489231,  0.0117607936263084 ]
  - [  -0.0002484684810042, -0.0007291249930859,  0.0117623098194599 ]