4
Lattice="4.40843889316938 0.0009388487108138364 2.5440327260777957 1.4690491383035498 4.155587049223416 2.543837485805475 0.0012024077220206902 0.0008094644250184066 5.089717177405317" Properties=species:S:1:pos:R:3:forces:R:3 structure_index=0 total_energy=-12.854838371276855 stress="0.06339408457279205 -0.0012282957322895527 -0.0028719680849462748 -0.0012283193645998836 0.058747414499521255 -0.0016924213850870728 -0.002871932927519083 -0.0016924208030104637 0.05861055105924606" pbc="T T T"
Li       3.45963966       2.78488836       6.98461566      -0.00054490      -0.00049410      -0.00119064
Ga       0.52044205       0.70658912       1.89628407      -0.00126796      -0.00146424      -0.00294088
Sn       1.98897034       1.74451785       4.43810491       0.00182954       0.00186402       0.00386390
Sn       4.92801227       3.82353982       4.43908045      -0.00001668       0.00009432       0.00026762
6
Lattice="4.625708928295572 -0.0014944447899145547 0.0007674710733626225 -2.311762207942252 4.006436959991368 -0.001162711318250973 -0.001079567320354275 0.0012115748587230362 6.381535787527768" Properties=species:S:1:pos:R:3:forces:R:3 structure_index=1 total_energy=-17.795330047607422 stress="0.0077783954329788685 -1.7603182641323656e-05 -4.514653937803814e-06 -1.7557793398736976e-05 0.007547241169959307 2.942605306088808e-06 -4.322014774515992e-06 2.835579152815626e-06 -0.0630873367190361" pbc="T T T"
Li       1.21456009       2.11568372       0.29628316      -0.00006039       0.00001100      -0.00031311
Ga       3.52675820       0.77994707       1.70138183      -0.00004721       0.00008079       0.00938632
Ga      -1.09887831       3.45269531       5.24854229       0.00010529      -0.00008412       0.05131053
Ga      -1.09828363       3.45197452       1.72373091       0.00009525      -0.00003350      -0.05129108
Ga       3.52616389       0.78066458       5.27316394      -0.00007386       0.00008755      -0.00918184
Sn       1.21394224       2.11637427       3.48675385      -0.00001906      -0.00006172       0.00008918
6
Lattice="4.947777596018595 0.2842127087703682 -0.3162248722040758 -2.232069506246652 3.860065363206554 -0.001002714810055036 -0.511725693540325 -0.2953540339444445 6.81695459860661" Properties=species:S:1:pos:R:3:forces:R:3 structure_index=2 total_energy=-19.31385040283203 stress="0.0068114148452878 0.011288517154753208 -0.006033699493855238 0.011288631707429886 -0.008147218264639378 -0.003919683396816254 -0.0060335430316627026 -0.003919669426977634 -0.03512779623270035" pbc="T T T"
Li      -0.56492531       0.30920417       5.71343871      -0.00777003      -0.00073042      -0.05241603
Li      -0.25977177       3.06221558       4.43494829      -0.00068165      -0.00157664       0.00424473
Ga       2.23853497       1.93000788       3.44577266       0.01173016       0.00822776       0.03610186
Sn      -0.05815184       3.17966271       0.94336611      -0.00402113      -0.00707059       0.00200552
Sn      -0.26179076       0.48553663       2.61397181       0.00855578       0.00604746       0.03148303
Sn       1.88132159       1.72478911       6.27820954      -0.00781311      -0.00489758      -0.02141915
4
Lattice="4.280493228721285 -0.0003032645162847719 -0.0006824632423399852 0.0009179619723474822 4.280933568008457 -0.0010189703379755379 0.00041147145439401054 0.0006124423319326974 4.35731285379434" Properties=species:S:1:pos:R:3:forces:R:3 structure_index=3 total_energy=-12.158651351928711 stress="0.04953092709183693 0.001816577510908246 -0.0013860007748007774 0.0018166054505854845 0.05273771658539772 -0.0020730141550302505 -0.001386073767207563 -0.0020731857512146235 0.055644743144512177" pbc="T T T"
Li       2.57331957       1.46773634       2.70351396      -0.00064438      -0.00014807      -0.00125967
Ga       0.43263180       1.46743823       0.52400251       0.00014366       0.00009709       0.00223969
Ga       2.57329705       3.60807784       0.52337496      -0.00025749      -0.00034524       0.00166725
Sn       0.43311039       3.60812245       2.70303258       0.00075821       0.00039621      -0.00264727
10
Lattice="4.375260697946494 0.011178013526763168 -0.002153994660380771 -2.2009612844607704 4.84706652765404 -1.2260628035181838 0.004079614135374204 0.040376536921674554 9.301320819008447" Properties=species:S:1:pos:R:3:forces:R:3 structure_index=4 total_energy=-29.686302185058594 stress="0.027052026242017746 -0.00013320494326762855 -6.978454621275887e-05 -0.00013328429486136883 0.024945087730884552 0.0014015522319823503 -6.964831845834851e-05 0.0014014315092936158 0.02085118182003498" pbc="T T T"
Li       3.11398789       0.59752154       6.37916829       0.00008562      -0.00291313      -0.00357058
Li       0.91766171       4.17517081       7.90179337       0.00004112       0.00973803      -0.00803313
Li       3.10921741       1.95097110       3.65668092       0.00010757      -0.01480893       0.00470624
Ga       0.91622406       3.71461971       2.28695076       0.00053067      -0.02799776       0.04216155
Ga       0.92731864      -0.01618620       4.65529273      -0.00052251       0.00123820       0.00691943
Ga       0.92135809       2.38418564       5.67045388      -0.00028575       0.00067933      -0.01989711
Ga      -1.26958002       3.68119403       5.87593964       0.00019406       0.00181090       0.00758459
Ga       0.92538574       1.21592298       8.11648653       0.00075191       0.00764691      -0.01356860
Sn       3.10660285       2.46363201       0.21049806      -0.00082653       0.01319168      -0.01157436
Sn       0.92415122       0.69972971       1.81253071      -0.00007617       0.01141472      -0.00472803
12
Lattice="5.276111184032061 -0.020137229693049742 -1.0105337026130283 -0.3774171388861584 5.7469580073108215 -2.1263159233431064 -0.10012219877052518 -0.1478725370997127 8.303083542407855" Properties=species:S:1:pos:R:3:forces:R:3 structure_index=5 total_energy=-37.539363861083984 stress="-0.008724221028387547 0.0006492956890724599 -7.034056034171954e-05 0.0006492717075161636 -0.009356347844004631 0.001587142702192068 -7.034654845483601e-05 0.0015870279166847467 -0.011352122761309147" pbc="T T T"
Li       2.03330678       3.19146586       3.19461111       0.02800100      -0.01135356      -0.00884877
Li      -0.26826506       5.28897073       0.09122291      -0.02805398      -0.00006081      -0.00786290
Li       2.62972857       0.94326385       1.19982459      -0.01149481      -0.00076818       0.00805014
Li       3.53767364       2.71278298       5.82795337       0.01045850       0.00518916      -0.01038229
Li       1.03260152       1.29267220       6.75202029       0.01124613       0.03483976       0.03454668
Ga       4.72048732       4.67617580       2.11011193       0.01353184      -0.01422315      -0.01349828
Ga       2.23445969       0.41356007       4.19762705       0.00441152      -0.04149079       0.01315796
Sn      -0.07636297       2.36227003       1.11283539      -0.02103354       0.02448826       0.00493812
Sn       4.74122510       1.71556084       3.20703187       0.01040731      -0.01983284       0.01237430
Sn       3.30910050       5.58926585       4.63828527       0.00703660       0.00264154       0.00000866
Sn       2.47306617       3.87467643       0.24163942      -0.02888108      -0.00114402      -0.01012779
Sn       0.83487292       4.17117040       5.82721750       0.00437052       0.02171464      -0.02235581
14
Lattice="5.464856737753035 -0.09897894409141703 -0.42954084639489376 -1.9227350221057888 5.75507702262198 -3.3705995573540526 -0.017081377667543717 0.05851187577163607 7.703594687726789" Properties=species:S:1:pos:R:3:forces:R:3 structure_index=6 total_energy=-39.000877380371094 stress="0.015097377821803093 0.008466131053864956 0.012437124736607075 0.008466353639960289 -0.013666469603776932 -0.004180056042969227 0.01243703905493021 -0.004180218558758497 -0.006868855096399784" pbc="T T T"
Li      -0.46405392       5.06786749       3.54143685       0.01228774      -0.00666175      -0.03458750
Li       3.05044371       1.70880962      -1.26029305       0.00123763       0.00489901      -0.00873091
Li       0.34786863       1.83521965      -0.26678502       0.00623822      -0.01346885       0.00274142
Li       1.40216114       3.46799695       2.01835907      -0.00337704      -0.00707806      -0.00664698
Li      -0.19181615       1.11174040       2.46757683      -0.00094304       0.01011195       0.02006098
Li       3.50325232       2.53314418       3.68051358      -0.00960766      -0.00396913      -0.00659926
Li       1.98176844       0.18319211       4.06830670      -0.01702224       0.00566803       0.00964904
Li       1.87073803       4.41894959      -0.82610719       0.00128774       0.00949856       0.02662504
Ga       4.62853599       0.16793837       4.89099637      -0.00101968       0.00144956       0.00521130
Ga       2.49051263       0.83297258       1.38541056      -0.00131734      -0.01706584      -0.00159892
Ga      -1.00381609       4.39684741      -1.50739731      -0.00822141       0.01472361      -0.00796084
Ga       2.38767019       5.24804030       4.16890035       0.01610678       0.00270320       0.00334529
Sn       4.04476926       3.38504824       0.83964838       0.00344735      -0.02103510      -0.00162425
Sn       0.84149260       2.69950975       4.76918614       0.00090295       0.02022484       0.00011557
4
Lattice="4.2747258511265995 0.0008966392423886279 -0.00047044076501470656 -0.0021602814654612707 4.274923928810325 -0.001390162691659169 0.0003313605845531681 0.0009912690714772832 4.3554146497828325" Properties=species:S:1:pos:R:3:forces:R:3 structure_index=7 total_energy=-12.15864086151123 stress="-0.06643061339855194 -0.0038043553940951824 -0.0007168803713284433 -0.003804250853136182 -0.0649951919913292 -0.0021107131615281105 -0.0007168888114392757 -0.0021107993088662624 -0.06792671233415604" pbc="T T T"
Li       2.97264389       3.90877637       2.56414841      -0.00029072       0.00021011       0.00110472
Ga       2.97439100       1.77119727       0.38854144      -0.00198574      -0.00059647      -0.00047091
Ga       0.83426534       3.90770555       0.38799980       0.00168293       0.00049296      -0.00026743
Sn       0.83668366       1.77081628       2.56675258       0.00059355      -0.00010661      -0.00036637
12
Lattice="3.9702227817619633 0.0018449674069393593 1.1463419932248473 1.0240887912462886 6.627881112431221 3.894047753280144 -0.08437169611374531 -0.39532121961833655 7.7381143572000015" Properties=species:S:1:pos:R:3:forces:R:3 structure_index=8 total_energy=-33.16370391845703 stress="0.030686605721712112 -0.0014072441263124347 0.012224161066114902 -0.001407248550094664 0.012346629984676838 0.01960877887904644 0.012224446050822735 0.019608916714787483 -0.01810654252767563" pbc="T T T"
Li       2.60629388      -0.16358993       4.34296761       0.00517463      -0.02329321      -0.01104753
Li       3.85579227       3.61151661       7.46506191       0.01068739      -0.00621091      -0.03868419
Li       2.86326637       5.71346469      10.89917776      -0.00218790      -0.01040769       0.00525127
Li       1.62881737       1.85295021       7.73108464      -0.00932792      -0.00066781       0.02845914
Li       0.91706460       1.49414030       2.74488823      -0.00688617       0.02844257       0.02778217
Li       2.38982115       2.56565155       5.09605252       0.00005659       0.00669650      -0.00196062
Li       0.66832517       4.24475604       3.61055192       0.00319991       0.02573085      -0.01638402
Ga       2.17269027       5.22162667       5.84379227      -0.01010450       0.02960417       0.03523090
Ga       3.04688543       2.85771504      10.26446667       0.01321908      -0.02188985      -0.04324983
Ga       0.14583006       0.92657583       5.41914948      -0.00189833      -0.01249864       0.00615525
Sn       3.40120318       0.46895755       1.59374824      -0.00312311      -0.00416039       0.01482368
Sn       1.37129550       4.63659040       8.61861154       0.00119034      -0.01134559      -0.00637626
4
Lattice="4.278596584371446 -0.008997224537005058 0.00993048571281197 0.01599905019997595 4.2797876176754945 0.008977765875451718 -0.011538987813447872 -0.010216613297212225 4.3492931273972975" Properties=species:S:1:pos:R:3:forces:R:3 structure_index=9 total_energy=-12.15863037109375 stress="-0.04187525808811188 0.02084190957248211 -0.0069339280016720295 0.02084178663790226 -0.033254191279411316 -0.00547370221465826 -0.006933947559446096 -0.005473847966641188 -0.09153967350721359" pbc="T T T"
Li       2.80577557       1.13767341       1.15376755      -0.00107457       0.00109323       0.00081275
Ga       0.65983689       1.13809515       3.32443368       0.00056654      -0.00077787      -0.00229177
Ga       2.80715022       3.27331478       3.33319639       0.00046293      -0.00041989      -0.00058010
Sn       0.67398676       3.28260398       1.15330888       0.00004508       0.00010453       0.00205913
16
Lattice="6.699758289035839 -0.34688028685648936 0.003194285753243029 -2.237308645428318 6.327030711293524 0.0027172492251258985 -0.004095282484174017 -0.005273331679238709 8.076759579533428" Properties=species:S:1:pos:R:3:forces:R:3 structure_index=10 total_energy=-47.92323684692383 stress="0.01762227714061737 -0.01073246169835329 -0.0014520835829898715 -0.010732417926192284 0.013816921971738338 -0.0023250312078744173 -0.0014520480763167143 -0.0023250319063663483 -0.0035905917175114155" pbc="T T T"
Li       0.14123342       4.49621582       6.61980060       0.00057218      -0.00011790      -0.02908959
Li       4.61302695       1.16467346       0.59056813       0.00058320       0.00032340      -0.00179448
Li       0.14398242       4.50324522       2.64390099      -0.00031125      -0.00033372       0.02795172
Ga       4.77030650       3.92089402       4.63233968      -0.02482105       0.00428109       0.00103370
Ga       0.46134632       2.49745270       0.59594700      -0.00279687       0.00538455      -0.00237448
Ga       0.51277410       2.44705932       4.62863821       0.00830057      -0.02368960      -0.00069985
Ga       2.21504540       4.73263732       4.62995258       0.02417191      -0.00479491       0.00222570
Ga       2.01153724       0.22584481       4.63047405      -0.00886265       0.02256840       0.00039017
Ga       2.15447286       4.76935011       0.59547781      -0.00446708      -0.00007131       0.00077416
Ga       4.83465068       3.88714396       0.59678332       0.00524459       0.00098580      -0.00003576
Ga       2.06536148       0.17949236       0.59007936       0.00321344      -0.00463760      -0.00005165
Ga       4.61249556       1.16334898       4.63463832      -0.00064465      -0.00017295       0.00090038
Sn       6.43458833      -0.20476580       6.71373269      -0.00628361       0.00858507       0.00659828
Sn       6.43640810      -0.19914605       2.54978336      -0.00792366       0.00721206      -0.00618991
Sn       2.78442140       2.52683290       6.71325503       0.00721757      -0.00767747       0.00701656
Sn       2.79043486       2.52672616       2.54995918       0.00680733      -0.00784495      -0.00665497
8
Lattice="4.716298547898062 -0.0001795080912176007 0.00042811900622045983 0.0005014734386387782 5.246975852220829 -2.9867111062272707 -0.00045908316472355906 -0.3862857822245436 6.025026735933038" Properties=species:S:1:pos:R:3:forces:R:3 structure_index=11 total_energy=-23.634138107299805 stress="0.02248348854482174 9.751499601406977e-05 9.298580698668957e-05 9.752911137184128e-05 -0.03355639427900314 0.0176205076277256 9.281760867452249e-05 0.017620570957660675 -0.05115771293640137" pbc="T T T"
Li       2.31207842       0.05814260       4.71102049      -0.00001973      -0.00841825       0.00976913
Li       4.67104088       3.62101198      -1.12245097      -0.00022922       0.00612184      -0.00986019
Li       2.31265342       2.81323694       0.16743012       0.00002276      -0.00430783       0.01099966
Li       4.67032009       0.86460290       3.42046206       0.00012548       0.00543535      -0.00926081
Ga       2.31232106       2.59846663       3.28375820       0.00007450      -0.00797576       0.01150864
Ga       4.67067522       1.07952397       0.30517439       0.00000045       0.00878184      -0.01288406
Sn       4.67063249       3.47753198       1.87646385       0.00004544       0.01593421      -0.02515461
Sn       2.31237989       0.20063717       1.71213554      -0.00001968      -0.01557143       0.02488223
8
Lattice="5.003565207672461 0.00950701181386872 3.3893770553771883 2.4932650078689162 4.624441869129266 1.6935210565839498 -0.08942535073319363 0.0007524993492034608 5.519192982150433" Properties=species:S:1:pos:R:3:forces:R:3 structure_index=12 total_energy=-21.679771423339844 stress="-0.03884633630514145 -0.0023518993984907866 0.0062612746842205524 -0.0023516982328146696 -0.052428022027015686 -0.0025615699123591185 0.0062614441849291325 -0.0025615461636334658 -0.05104554444551468" pbc="T T T"
Li       2.79656185       3.81053497       5.88800907      -0.00275782      -0.00124881      -0.00203284
Li       1.59615038       1.49791819       2.28177515      -0.00534930      -0.00273905      -0.00190901
Li       5.29880792       3.81484202       7.58107190       0.00214131       0.00203323       0.00276229
Li       4.05128503       1.50492880       6.73778692       0.00083299      -0.00267517      -0.00537411
Li       4.09637900       1.50130995       3.97540190      -0.00027462      -0.00199555       0.00519279
Ga       5.34197068       3.81314175       4.82266668       0.00103338       0.00234038      -0.00145223
Ga       2.84226622       3.80817947       3.12787384       0.00131089       0.00379834       0.00050979
Sn       1.54949732       1.49781913       5.04093908       0.00306319       0.00048664       0.00230332
3
Lattice="2.937757900158502 2.8397684723056232e-05 0.001635714053583478 7.731336834468687e-05 4.293438734200479 -2.4825994790307075 -0.000613999587843823 -0.0017700285962925022 4.955628354462195" Properties=species:S:1:pos:R:3:forces:R:3 structure_index=13 total_energy=-9.137040138244629 stress="0.08936495333909988 -0.00024188017414417118 0.0025146359112113714 -0.00024172528355848044 0.001927030156366527 0.0019051790004596114 0.0025147469714283943 0.0019054440781474113 -0.0034836239647120237" pbc="T T T"
Li       0.77370476       0.92108855       2.66563236      -0.00086855      -0.00083936      -0.00129667
Ga       2.23995904       3.78204713       2.66455051       0.00092219       0.00053816       0.00005924
Sn       2.24230205       2.35194423       0.18646699      -0.00005362       0.00030122       0.00123742
8
Lattice="4.748718269800032 -0.007635111267260007 0.0036444182811677657 0.009686775030097038 5.044813234635097 -2.8076131003621403 -0.003855018912639702 -0.010017145532795512 5.642197515443433" Properties=species:S:1:pos:R:3:forces:R:3 structure_index=14 total_energy=-21.66303253173828 stress="0.02857949212193489 -0.0006628986448049545 0.0011899368837475777 -0.0006628684932366014 -0.009287779219448566 0.002904849825426936 0.001190071925520897 0.0029048409778624773 0.05077715590596199" pbc="T T T"
Li       3.83019164       4.69943611       0.54847640       0.00020467       0.03925621       0.00281384
Li       1.45374333       3.79893375       1.95898585      -0.00044664      -0.01948320       0.00104663
Li       3.82690066       2.08690740      -0.88979207       0.00040394      -0.00620251       0.02266907
Li       1.45553329       3.80073309      -0.86352562      -0.00046565      -0.01339763      -0.00193997
Li       3.82519852       2.08320100       1.97736866       0.00014368      -0.00796736      -0.02183080
Ga       1.45091177       1.40493129       0.54448409      -0.00053579      -0.03772150      -0.00049049
Ga       1.44847459       1.28040641       3.36511884       0.00019034      -0.00427415      -0.00618437
Sn       3.83205600       4.58633888      -2.27224743       0.00050547       0.04979011       0.00391607
20
Lattice="4.240595176100899 -0.005587422239755868 0.0010252984995563232 0.008093553261347667 6.075156940381193 -0.05302881577282705 -0.004099298525885518 -0.38603980194591536 15.06076922093941" Properties=species:S:1:pos:R:3:forces:R:3 structure_index=15 total_energy=-59.78547668457031 stress="0.01330514531582594 4.153139525442384e-05 -2.366820081078913e-05 4.154159250902012e-05 0.016384292393922806 0.0025361664593219757 -2.366419903410133e-05 0.002536272630095482 0.01670978032052517" pbc="T T T"
Li       1.65265686       4.32153878       0.74819769      -0.00009975       0.02351563      -0.01747274
Li       1.64759026       1.26908245       3.72823991       0.00027990       0.01311801       0.03573552
Li       3.77269350       5.57453029      11.32655890      -0.00006511      -0.01200516      -0.01408315
Li       3.76735841       2.41570763      14.24504544       0.00026993       0.01740796      -0.00822715
Li       1.64706368       1.18948992       7.00774817      -0.00004121      -0.02063574       0.03666615
Li       3.77329586       5.64828566       5.34073454       0.00001666      -0.03759642      -0.01171622
Li       3.77440709       5.86607725       2.10398383       0.00013650       0.02796459      -0.00336309
Ga       3.77047789       2.86082013       2.23157085      -0.00029785       0.01122316       0.05007277
Ga       3.76917327       2.62962973       8.43217273      -0.00003136      -0.01276802       0.00794595
Ga       1.64671308       1.09435979       9.95765628      -0.00080993      -0.02655155      -0.01414746
Ga       1.65033271       3.99518933       9.82395592       0.00001992       0.01561807      -0.01002927
Ga       1.65097775       4.10419863       6.70768951       0.00009327       0.00191939      -0.04625687
Ga       1.64583228       0.94778393      12.79272901      -0.00038885       0.00944437      -0.00189288
Ga       3.77127857       5.51166550      14.31405713       0.00072385       0.02526600      -0.00411937
Ga       3.76819805       2.42510173      11.28380212       0.00047912       0.00698084       0.02546131
Sn       1.65146560       4.40357455       3.65754833       0.00084329      -0.01826696      -0.00848341
Sn       3.77296811       5.62872539       8.32482722       0.00030142      -0.02032946      -0.01153723
Sn       1.64867688       1.33381873       0.74901981      -0.00022631       0.01833731       0.00935268
Sn       3.76948664       2.52938919       5.33470480      -0.00050170      -0.02452587       0.00944360
Sn       1.64980404       4.00221026      12.82553702      -0.00070182       0.00188383      -0.02334918
10
Lattice="3.2970779001951795 0.00033694360893382196 2.570818374401254e-05 -0.00033772363038906555 3.2971611088999473 9.905988616252231e-05 -0.0002181836587268382 -0.0004582944665101143 17.96893884844647" Properties=species:S:1:pos:R:3:forces:R:3 structure_index=16 total_energy=-30.938596725463867 stress="0.00294174300506711 -6.830513939348748e-06 -3.757164449780248e-05 -6.790792212996166e-06 0.00379009498283267 6.266206037253141e-05 -3.7109504773980007e-05 6.253038736758754e-05 0.029532819986343384" pbc="T T T"
Li       1.36877250       0.15741252       1.72949164      -0.00059370      -0.00051385      -0.00926043
Li       1.36852630       0.15793186       5.48778679       0.00017049      -0.00033741      -0.00325575
Li       1.36845061       0.15653390      15.97614160      -0.00074140      -0.00060559      -0.03890011
Li       1.36904041       0.15755744       9.25622755      -0.00025940       0.00001120       0.01107521
Li       1.36801122       0.15625587      12.99497079       0.00012548       0.00012962       0.04156234
Ga       3.01627900       1.80479088      14.48665589       0.00080439       0.00090370      -0.00450506
Sn       3.01755570       1.80698084       7.35152103      -0.00056569      -0.00066481       0.02462928
Sn       3.01676335       1.80557320      11.15328880       0.00014302       0.00005981      -0.02646881
Sn       3.01668479       1.80528883      17.81618204       0.00022746       0.00024882       0.01214593
Sn       3.01651953       1.80586404       3.62150065       0.00068938       0.00076851      -0.00702261
8
Lattice="4.080944615427512 0.004751656254559614 -0.0014118104018676209 -0.0047029276707285525 4.407110019243571 -0.0011561913006609109 0.0027436678112926116 0.002041968484121188 8.015128603992586" Properties=species:S:1:pos:R:3:forces:R:3 structure_index=17 total_energy=-22.763229370117188 stress="0.04530644044280052 0.0015630359994247556 -6.067636422812939e-05 0.0015630555571988225 -0.004729771986603737 0.00022061137133277953 -6.071052121114917e-05 0.00022059293405618519 -0.02366800419986248" pbc="T T T"
Li       2.60800449       1.94393257       1.88150992      -0.00031533       0.00090416      -0.04695595
Li       2.60702674       4.14975022       7.79601260       0.00070533      -0.00039489      -0.00070806
Li       2.60929375       1.94552532       5.69598947      -0.00018408       0.00041094       0.04721292
Li       0.56839362       1.94244437       3.78942613      -0.00052754       0.00054792       0.00001754
Li       0.56912511       1.94370306       7.79707978       0.00028914       0.00017323      -0.00014606
Ga       2.60613589       4.14852977       3.78838647       0.00003361      -0.00039625      -0.00085424
Sn       0.56629577       4.14698720       5.77819131      -0.00010556      -0.00085150       0.00168113
Sn       0.56487043       4.14548474       1.79948107       0.00010444      -0.00039360      -0.00024729
6
Lattice="4.563882805208165 0.0002015596985204338 -0.0008213192765939452 -2.281877323020718 3.952441295898529 0.0005842024547871545 0.0009385235726780124 0.00023582914780570396 7.481547540837537" Properties=species:S:1:pos:R:3:forces:R:3 structure_index=18 total_energy=-18.664527893066406 stress="-0.01632731780409813 -0.00027802781551145017 -0.00019466281810309738 -0.00027806058642454445 -0.016530247405171394 0.00011395988258300349 -0.00019472003623377532 0.00011388387792976573 0.0009842987637966871" pbc="T T T"
Li       1.10481687       3.48714618       3.18652128       0.00175665      -0.00031199      -0.00511912
Li       1.10843597       3.48574392       6.92585232      -0.00169054       0.00054194      -0.00402896
Ga       1.10693884       0.85116583       6.16526178       0.00178539      -0.00003447      -0.02095438
Ga      -1.17586160       2.16920769       2.42433577      -0.00253516       0.00066367      -0.01615406
Sn      -1.17505937       2.16866027       5.24090545      -0.00032286       0.00003668       0.01818681
Sn       1.10567962       0.85192942       1.49853908       0.00100652      -0.00089583       0.02806977
4
Lattice="4.407774155841719 -1.923942577131354e-05 2.545689072335859 1.469098344833447 4.155138862369242 2.545585172239723 0.00023136609703860176 0.00014473446656842846 5.090177422635265" Properties=species:S:1:pos:R:3:forces:R:3 structure_index=19 total_energy=-12.85483455657959 stress="0.06403636187314987 0.0007780430605635047 -0.00042663031490519643 0.0007780754822306335 0.06216666102409363 -0.00013562302046921104 -0.0004265719326213002 -0.0001356278226012364 0.06335310637950897" pbc="T T T"
Li       0.76670753       0.36600875       2.37404056      -0.00072294      -0.00031008      -0.00110950
Ga       3.70619664       2.44373458       7.46519666      -0.00270053      -0.00073219      -0.00273791
Sn       2.23559949       1.40521312       4.91932803       0.00136220      -0.00058535       0.00021331
Sn       5.17348298       3.48130405       4.91785664       0.00206127       0.00162762       0.00363409
18
Lattice="5.9451750081248 0.0025503974358335375 -1.1237118349344795 -0.21533089830771265 7.3954754470335775 -0.0300599104438675 0.01297098580950078 -0.015047130230944365 7.860505186411824" Properties=species:S:1:pos:R:3:forces:R:3 structure_index=20 total_energy=-53.50509262084961 stress="-0.020037351176142693 -0.0011146058095619082 -0.0007738785352557898 -0.001114384736865759 -0.0202886164188385 -0.00018506265769246966 -0.000773792271502316 -0.00018515242845751345 -0.019960176199674606" pbc="T T T"
Li       4.51948709       4.01165402      -0.61023429      -0.00045037       0.01679674      -0.01057060
Li       3.03080229       6.46963508       0.62914059       0.01760931       0.02186348      -0.00504780
Li       3.85860548       1.43044447       3.90186121      -0.01332620       0.00282646       0.00422754
Li       4.94753689       1.49108757       1.10659839       0.00256091      -0.00053180       0.01535220
Li       1.01899540       6.49032875       6.09143926       0.01453895       0.00078146      -0.00987279
Li       2.45050656       3.96396849       4.91667180       0.02235945       0.00669993      -0.01542747
Ga       0.08644339       6.40135916       1.16902170      -0.01030762       0.00783407       0.02033568
Ga       5.84604332       1.45666097       6.31534123      -0.01643296      -0.01128014       0.02116473
Ga       1.44686904       4.25131600      -0.04539868       0.01257931       0.04405447      -0.00530207
Ga       1.99635625       6.35924784       3.32272711      -0.01933125      -0.01827189      -0.01345969
Ga       0.49301831       3.92084243       2.67976018       0.00117469      -0.01651552      -0.00288238
Ga       5.10185703       6.54138760       2.69293036      -0.02151965      -0.01589385       0.01403957
Ga       0.93128084       1.40987853       4.39460933       0.01214566      -0.02491617      -0.00372476
Ga       1.84147622       1.30668128       1.76143170      -0.00037603      -0.01093481       0.00446940
Sn       2.77296475       1.68895451       6.81909086      -0.02220354       0.02330912       0.00645219
Sn       4.00625558       6.40680551       5.59207925       0.00644839       0.00376012      -0.01659870
Sn       5.56449218       3.80873266       4.45814506       0.02513092      -0.02978393       0.01443985