# Thermal properties / unit cell (natom)

unit:
  temperature:   K
  free_energy:   kJ/mol
  entropy:       J/K/mol
  heat_capacity: J/K/mol

natom: 18   
cutoff_frequency: 0.00000
num_modes: 230850
num_integrated_modes: 230850

zero_point_energy:      70.6696446

thermal_properties:
- temperature:         0.0000000
  free_energy:        70.6696446
  entropy:             0.0000000
  heat_capacity:       0.0000000
  energy:             70.6696446

- temperature:        10.0000000
  free_energy:        70.6674277
  entropy:             0.7231919
  heat_capacity:       2.4472554
  energy:             70.6746596

- temperature:        20.0000000
  free_energy:        70.6315670
  entropy:             8.2220399
  heat_capacity:      25.3513266
  energy:             70.7960078

- temperature:        30.0000000
  free_energy:        70.4738242
  entropy:            24.2907624
  heat_capacity:      55.5877666
  energy:             71.2025470

- temperature:        40.0000000
  free_energy:        70.1337356
  entropy:            44.0885511
  heat_capacity:      82.9517518
  energy:             71.8972777

- temperature:        50.0000000
  free_energy:        69.5871879
  entropy:            65.3891986
  heat_capacity:     108.7875777
  energy:             72.8566478

- temperature:        60.0000000
  free_energy:        68.8234077
  entropy:            87.4639926
  heat_capacity:     134.0583042
  energy:             74.0712472

- temperature:        70.0000000
  free_energy:        67.8363951
  entropy:           109.9954646
  heat_capacity:     158.7981516
  energy:             75.5360776

- temperature:        80.0000000
  free_energy:        66.6226858
  entropy:           132.7716839
  heat_capacity:     182.7000950
  energy:             77.2444205

- temperature:        90.0000000
  free_energy:        65.1807399
  entropy:           155.6150635
  heat_capacity:     205.4096927
  energy:             79.1860956

- temperature:       100.0000000
  free_energy:        63.5106814
  entropy:           178.3701518
  heat_capacity:     226.6478859
  energy:             81.3476966

- temperature:       110.0000000
  free_energy:        61.6140751
  entropy:           200.9046163
  heat_capacity:     246.2485656
  energy:             83.7135829

- temperature:       120.0000000
  free_energy:        59.4936855
  entropy:           223.1109776
  heat_capacity:     264.1524954
  energy:             86.2670028

- temperature:       130.0000000
  free_energy:        57.1532281
  entropy:           244.9063199
  heat_capacity:     280.3833410
  energy:             88.9910497

- temperature:       140.0000000
  free_energy:        54.5971330
  entropy:           266.2301534
  heat_capacity:     295.0206887
  energy:             91.8693544

- temperature:       150.0000000
  free_energy:        51.8303359
  entropy:           287.0412585
  heat_capacity:     308.1768861
  energy:             94.8865246

- temperature:       160.0000000
  free_energy:        48.8581029
  entropy:           307.3142352
  heat_capacity:     319.9797122
  energy:             98.0283806

- temperature:       170.0000000
  free_energy:        45.6858889
  entropy:           327.0362190
  heat_capacity:     330.5605667
  energy:            101.2820461

- temperature:       180.0000000
  free_energy:        42.3192267
  entropy:           346.2039900
  heat_capacity:     340.0470544
  energy:            104.6359449

- temperature:       190.0000000
  free_energy:        38.7636437
  entropy:           364.8215544
  heat_capacity:     348.5587469
  energy:            108.0797390

- temperature:       200.0000000
  free_energy:        35.0245991
  entropy:           382.8981873
  heat_capacity:     356.2050966
  energy:            111.6042366

- temperature:       210.0000000
  free_energy:        31.1074400
  entropy:           400.4468878
  heat_capacity:     363.0847302
  energy:            115.2012864

- temperature:       220.0000000
  free_energy:        27.0173696
  entropy:           417.4831824
  heat_capacity:     369.2855782
  energy:            118.8636697

- temperature:       230.0000000
  free_energy:        22.7594273
  entropy:           434.0242110
  heat_capacity:     374.8854768
  energy:            122.5849959

- temperature:       240.0000000
  free_energy:        18.3384761
  entropy:           450.0880397
  heat_capacity:     379.9530041
  energy:            126.3596056

- temperature:       250.0000000
  free_energy:        13.7591956
  entropy:           465.6931497
  heat_capacity:     384.5484065
  energy:            130.1824830

- temperature:       260.0000000
  free_energy:         9.0260804
  entropy:           480.8580634
  heat_capacity:     388.7245259
  energy:            134.0491769

- temperature:       270.0000000
  free_energy:         4.1434406
  entropy:           495.6010753
  heat_capacity:     392.5276806
  energy:            137.9557310

- temperature:       280.0000000
  free_energy:        -0.8845944
  entropy:           509.9400628
  heat_capacity:     395.9984740
  energy:            141.8986231

- temperature:       290.0000000
  free_energy:        -6.0540717
  entropy:           523.8923568
  heat_capacity:     399.1725214
  energy:            145.8747118

- temperature:       300.0000000
  free_energy:       -11.3612083
  entropy:           537.4746581
  heat_capacity:     402.0810947
  energy:            149.8811891

- temperature:       310.0000000
  free_energy:       -16.8023851
  entropy:           550.7029865
  heat_capacity:     404.7516883
  energy:            153.9155408

- temperature:       320.0000000
  free_energy:       -22.3741393
  entropy:           563.5926559
  heat_capacity:     407.2085123
  energy:            157.9755106

- temperature:       330.0000000
  free_energy:       -28.0731581
  entropy:           576.1582665
  heat_capacity:     409.4729207
  energy:            162.0590699

- temperature:       340.0000000
  free_energy:       -33.8962708
  entropy:           588.4137105
  heat_capacity:     411.5637826
  energy:            166.1643908

- temperature:       350.0000000
  free_energy:       -39.8404424
  entropy:           600.3721868
  heat_capacity:     413.4978023
  energy:            170.2898229

- temperature:       360.0000000
  free_energy:       -45.9027665
  entropy:           612.0462224
  heat_capacity:     415.2897968
  energy:            174.4338736

- temperature:       370.0000000
  free_energy:       -52.0804584
  entropy:           623.4476971
  heat_capacity:     416.9529338
  energy:            178.5951895

- temperature:       380.0000000
  free_energy:       -58.3708495
  entropy:           634.5878722
  heat_capacity:     418.4989389
  energy:            182.7725420

- temperature:       390.0000000
  free_energy:       -64.7713805
  entropy:           645.4774189
  heat_capacity:     419.9382739
  energy:            186.9648129

- temperature:       400.0000000
  free_energy:       -71.2795962
  entropy:           656.1264484
  heat_capacity:     421.2802909
  energy:            191.1709831

- temperature:       410.0000000
  free_energy:       -77.8931397
  entropy:           666.5445415
  heat_capacity:     422.5333662
  energy:            195.3901223

- temperature:       420.0000000
  free_energy:       -84.6097476
  entropy:           676.7407779
  heat_capacity:     423.7050166
  energy:            199.6213791

- temperature:       430.0000000
  free_energy:       -91.4272445
  entropy:           686.7237635
  heat_capacity:     424.8019997
  energy:            203.8639738

- temperature:       440.0000000
  free_energy:       -98.3435392
  entropy:           696.5016587
  heat_capacity:     425.8304020
  energy:            208.1171906

- temperature:       450.0000000
  free_energy:      -105.3566199
  entropy:           706.0822033
  heat_capacity:     426.7957153
  energy:            212.3803716

- temperature:       460.0000000
  free_energy:      -112.4645500
  entropy:           715.4727417
  heat_capacity:     427.7029035
  energy:            216.6529112

- temperature:       470.0000000
  free_energy:      -119.6654647
  entropy:           724.6802460
  heat_capacity:     428.5564609
  energy:            220.9342510

- temperature:       480.0000000
  free_energy:      -126.9575669
  entropy:           733.7113379
  heat_capacity:     429.3604635
  energy:            225.2238753

- temperature:       490.0000000
  free_energy:      -134.3391244
  entropy:           742.5723098
  heat_capacity:     430.1186141
  energy:            229.5213074

- temperature:       500.0000000
  free_energy:      -141.8084660
  entropy:           751.2691440
  heat_capacity:     430.8342815
  energy:            233.8261060

- temperature:       510.0000000
  free_energy:      -149.3639791
  entropy:           759.8075311
  heat_capacity:     431.5105357
  energy:            238.1378617

- temperature:       520.0000000
  free_energy:      -157.0041066
  entropy:           768.1928870
  heat_capacity:     432.1501784
  energy:            242.4561947

- temperature:       530.0000000
  free_energy:      -164.7273440
  entropy:           776.4303694
  heat_capacity:     432.7557702
  energy:            246.7807518

- temperature:       540.0000000
  free_energy:      -172.5322374
  entropy:           784.5248923
  heat_capacity:     433.3296549
  energy:            251.1112044

- temperature:       550.0000000
  free_energy:      -180.4173809
  entropy:           792.4811406
  heat_capacity:     433.8739808
  energy:            255.4472464

- temperature:       560.0000000
  free_energy:      -188.3814143
  entropy:           800.3035828
  heat_capacity:     434.3907193
  energy:            259.7885921

- temperature:       570.0000000
  free_energy:      -196.4230208
  entropy:           807.9964837
  heat_capacity:     434.8816824
  energy:            264.1349749

- temperature:       580.0000000
  free_energy:      -204.5409257
  entropy:           815.5639157
  heat_capacity:     435.3485373
  energy:            268.4861454

- temperature:       590.0000000
  free_energy:      -212.7338939
  entropy:           823.0097700
  heat_capacity:     435.7928203
  energy:            272.8418704

- temperature:       600.0000000
  free_energy:      -221.0007283
  entropy:           830.3377660
  heat_capacity:     436.2159484
  energy:            277.2019313

- temperature:       610.0000000
  free_energy:      -229.3402682
  entropy:           837.5514614
  heat_capacity:     436.6192303
  energy:            281.5661232

- temperature:       620.0000000
  free_energy:      -237.7513879
  entropy:           844.6542607
  heat_capacity:     437.0038761
  energy:            285.9342538

- temperature:       630.0000000
  free_energy:      -246.2329947
  entropy:           851.6494238
  heat_capacity:     437.3710060
  energy:            290.3061424

- temperature:       640.0000000
  free_energy:      -254.7840280
  entropy:           858.5400734
  heat_capacity:     437.7216580
  energy:            294.6816190

- temperature:       650.0000000
  free_energy:      -263.4034577
  entropy:           865.3292024
  heat_capacity:     438.0567951
  energy:            299.0605238

- temperature:       660.0000000
  free_energy:      -272.0902832
  entropy:           872.0196809
  heat_capacity:     438.3773115
  energy:            303.4427062

- temperature:       670.0000000
  free_energy:      -280.8435317
  entropy:           878.6142624
  heat_capacity:     438.6840386
  energy:            307.8280241

- temperature:       680.0000000
  free_energy:      -289.6622576
  entropy:           885.1155900
  heat_capacity:     438.9777499
  energy:            312.2163436

- temperature:       690.0000000
  free_energy:      -298.5455411
  entropy:           891.5262018
  heat_capacity:     439.2591658
  energy:            316.6075381

- temperature:       700.0000000
  free_energy:      -307.4924874
  entropy:           897.8485365
  heat_capacity:     439.5289580
  energy:            321.0014881

- temperature:       710.0000000
  free_energy:      -316.5022254
  entropy:           904.0849381
  heat_capacity:     439.7877534
  energy:            325.3980806

- temperature:       720.0000000
  free_energy:      -325.5739073
  entropy:           910.2376608
  heat_capacity:     440.0361373
  energy:            329.7972085

- temperature:       730.0000000
  free_energy:      -334.7067070
  entropy:           916.3088732
  heat_capacity:     440.2746571
  energy:            334.1987705

- temperature:       740.0000000
  free_energy:      -343.8998200
  entropy:           922.3006628
  heat_capacity:     440.5038246
  energy:            338.6026705

- temperature:       750.0000000
  free_energy:      -353.1524622
  entropy:           928.2150394
  heat_capacity:     440.7241194
  energy:            343.0088174

- temperature:       760.0000000
  free_energy:      -362.4638692
  entropy:           934.0539394
  heat_capacity:     440.9359907
  energy:            347.4171248

- temperature:       770.0000000
  free_energy:      -371.8332956
  entropy:           939.8192288
  heat_capacity:     441.1398600
  energy:            351.8275105

- temperature:       780.0000000
  free_energy:      -381.2600144
  entropy:           945.5127065
  heat_capacity:     441.3361228
  energy:            356.2398966

- temperature:       790.0000000
  free_energy:      -390.7433162
  entropy:           951.1361076
  heat_capacity:     441.5251506
  energy:            360.6542089

- temperature:       800.0000000
  free_energy:      -400.2825086
  entropy:           956.6911066
  heat_capacity:     441.7072928
  energy:            365.0703767

- temperature:       810.0000000
  free_energy:      -409.8769157
  entropy:           962.1793192
  heat_capacity:     441.8828777
  energy:            369.4883329

- temperature:       820.0000000
  free_energy:      -419.5258775
  entropy:           967.6023060
  heat_capacity:     442.0522149
  energy:            373.9080134

- temperature:       830.0000000
  free_energy:      -429.2287494
  entropy:           972.9615744
  heat_capacity:     442.2155956
  energy:            378.3293573

- temperature:       840.0000000
  free_energy:      -438.9849015
  entropy:           978.2585808
  heat_capacity:     442.3732945
  energy:            382.7523064

- temperature:       850.0000000
  free_energy:      -448.7937182
  entropy:           983.4947333
  heat_capacity:     442.5255708
  energy:            387.1768051

- temperature:       860.0000000
  free_energy:      -458.6545978
  entropy:           988.6713935
  heat_capacity:     442.6726690
  energy:            391.6028006

- temperature:       870.0000000
  free_energy:      -468.5669521
  entropy:           993.7898784
  heat_capacity:     442.8148201
  energy:            396.0302420

- temperature:       880.0000000
  free_energy:      -478.5302057
  entropy:           998.8514624
  heat_capacity:     442.9522425
  energy:            400.4590812

- temperature:       890.0000000
  free_energy:      -488.5437958
  entropy:          1003.8573794
  heat_capacity:     443.0851426
  energy:            404.8892718

- temperature:       900.0000000
  free_energy:      -498.6071718
  entropy:          1008.8088238
  heat_capacity:     443.2137158
  energy:            409.3207696

- temperature:       910.0000000
  free_energy:      -508.7197946
  entropy:          1013.7069527
  heat_capacity:     443.3381471
  energy:            413.7535323

- temperature:       920.0000000
  free_energy:      -518.8811368
  entropy:          1018.5528872
  heat_capacity:     443.4586118
  energy:            418.1875194

- temperature:       930.0000000
  free_energy:      -529.0906820
  entropy:          1023.3477138
  heat_capacity:     443.5752760
  energy:            422.6226919

- temperature:       940.0000000
  free_energy:      -539.3479243
  entropy:          1028.0924862
  heat_capacity:     443.6882972
  energy:            427.0590127

- temperature:       950.0000000
  free_energy:      -549.6523683
  entropy:          1032.7882257
  heat_capacity:     443.7978249
  energy:            431.4964462

- temperature:       960.0000000
  free_energy:      -560.0035286
  entropy:          1037.4359236
  heat_capacity:     443.9040010
  energy:            435.9349581

- temperature:       970.0000000
  free_energy:      -570.4009298
  entropy:          1042.0365415
  heat_capacity:     444.0069605
  energy:            440.3745155

- temperature:       980.0000000
  free_energy:      -580.8441057
  entropy:          1046.5910129
  heat_capacity:     444.1068314
  energy:            444.8150870

- temperature:       990.0000000
  free_energy:      -591.3325993
  entropy:          1051.1002439
  heat_capacity:     444.2037356
  energy:            449.2566422

- temperature:      1000.0000000
  free_energy:      -601.8659627
  entropy:          1055.5651149
  heat_capacity:     444.2977891
  energy:            453.6991522
