phonopy:
  version: "2.37.1"
  frequency_unit_conversion_factor: 15.633302
  symmetry_tolerance: 1.00000e-05

space_group:
  type: "P1"
  number: 1
  Hall_symbol: "P 1"

primitive_matrix:
- [  0.000000000000000,  1.000000000000000, -0.000000000000000 ]
- [  0.000000000000000,  0.000000000000000, -1.000000000000000 ]
- [ -1.000000000000000,  0.000000000000000,  0.000000000000000 ]

supercell_matrix:
- [   3,   0,   0 ]
- [   0,   3,   0 ]
- [   0,   0,   3 ]

primitive_cell:
  lattice:
  - [    -0.003172333871708,     0.001233881133753,    -4.094301239353022 ] # a
  - [     4.097594537471982,     0.000000000000000,     0.000000000000000 ] # b
  - [    -0.001682749931326,    -4.097947914542404,     0.000000000000000 ] # c
  points:
  - symbol: Li # 1
    coordinates: [  0.470019698143005,  0.672469854354858,  0.098346889019012 ]
    mass: 6.940000
  - symbol: Ga # 2
    coordinates: [  0.970142224803567,  0.172367960214615,  0.098425626754761 ]
    mass: 69.723000
  - symbol: Ga # 3
    coordinates: [  0.470075964927674,  0.172415807843208,  0.598778784275055 ]
    mass: 69.723000
  - symbol: Ga # 4
    coordinates: [  0.970183968544006,  0.672436594963074,  0.598724752664566 ]
    mass: 69.723000
  reciprocal_lattice: # without 2pi
  - [     0.000000000000000,    -0.000000000000000,    -0.244241921036084 ] # a*
  - [     0.244045620144972,    -0.000100213023470,    -0.000189120876242 ] # b*
  - [     0.000000000000000,    -0.244024575434767,    -0.000073540587807 ] # c*

unit_cell:
  lattice:
  - [     4.097594537471982,     0.000000000000000,     0.000000000000000 ] # a
  - [     0.001682749931325,     4.097947914542405,     0.000000000000000 ] # b
  - [     0.003172333871709,    -0.001233881133753,     4.094301239353022 ] # c
  points:
  - symbol: Li # 1
    coordinates: [  0.672469854354858,  0.901653110980988,  0.529980301856995 ]
    mass: 6.940000
    reduced_to: 1
  - symbol: Ga # 2
    coordinates: [  0.172367960214615,  0.901574373245239,  0.029857775196433 ]
    mass: 69.723000
    reduced_to: 2
  - symbol: Ga # 3
    coordinates: [  0.172415807843208,  0.401221215724945,  0.529924035072326 ]
    mass: 69.723000
    reduced_to: 3
  - symbol: Ga # 4
    coordinates: [  0.672436594963074,  0.401275247335434,  0.029816031455994 ]
    mass: 69.723000
    reduced_to: 4

supercell:
  lattice:
  - [    12.292783612415946,     0.000000000000000,     0.000000000000000 ] # a
  - [     0.005048249793976,    12.293843743627214,     0.000000000000000 ] # b
  - [     0.009517001615126,    -0.003701643401258,    12.282903718059067 ] # c
  points:
  - symbol: Li # 1
    coordinates: [  0.224156618118286,  0.300551036993663,  0.176660100618998 ]
    mass: 6.940000
    reduced_to: 1
  - symbol: Li # 2
    coordinates: [  0.557489951451619,  0.300551036993663,  0.176660100618998 ]
    mass: 6.940000
    reduced_to: 1
  - symbol: Li # 3
    coordinates: [  0.890823284784953,  0.300551036993663,  0.176660100618998 ]
    mass: 6.940000
    reduced_to: 1
  - symbol: Li # 4
    coordinates: [  0.224156618118286,  0.633884370326996,  0.176660100618998 ]
    mass: 6.940000
    reduced_to: 1
  - symbol: Li # 5
    coordinates: [  0.557489951451619,  0.633884370326996,  0.176660100618998 ]
    mass: 6.940000
    reduced_to: 1
  - symbol: Li # 6
    coordinates: [  0.890823284784953,  0.633884370326996,  0.176660100618998 ]
    mass: 6.940000
    reduced_to: 1
  - symbol: Li # 7
    coordinates: [  0.224156618118286,  0.967217703660329,  0.176660100618998 ]
    mass: 6.940000
    reduced_to: 1
  - symbol: Li # 8
    coordinates: [  0.557489951451619,  0.967217703660329,  0.176660100618998 ]
    mass: 6.940000
    reduced_to: 1
  - symbol: Li # 9
    coordinates: [  0.890823284784953,  0.967217703660329,  0.176660100618998 ]
    mass: 6.940000
    reduced_to: 1
  - symbol: Li # 10
    coordinates: [  0.224156618118286,  0.300551036993663,  0.509993433952332 ]
    mass: 6.940000
    reduced_to: 1
  - symbol: Li # 11
    coordinates: [  0.557489951451619,  0.300551036993663,  0.509993433952332 ]
    mass: 6.940000
    reduced_to: 1
  - symbol: Li # 12
    coordinates: [  0.890823284784953,  0.300551036993663,  0.509993433952332 ]
    mass: 6.940000
    reduced_to: 1
  - symbol: Li # 13
    coordinates: [  0.224156618118286,  0.633884370326996,  0.509993433952332 ]
    mass: 6.940000
    reduced_to: 1
  - symbol: Li # 14
    coordinates: [  0.557489951451619,  0.633884370326996,  0.509993433952332 ]
    mass: 6.940000
    reduced_to: 1
  - symbol: Li # 15
    coordinates: [  0.890823284784953,  0.633884370326996,  0.509993433952332 ]
    mass: 6.940000
    reduced_to: 1
  - symbol: Li # 16
    coordinates: [  0.224156618118286,  0.967217703660329,  0.509993433952332 ]
    mass: 6.940000
    reduced_to: 1
  - symbol: Li # 17
    coordinates: [  0.557489951451619,  0.967217703660329,  0.509993433952332 ]
    mass: 6.940000
    reduced_to: 1
  - symbol: Li # 18
    coordinates: [  0.890823284784953,  0.967217703660329,  0.509993433952332 ]
    mass: 6.940000
    reduced_to: 1
  - symbol: Li # 19
    coordinates: [  0.224156618118286,  0.300551036993663,  0.843326767285665 ]
    mass: 6.940000
    reduced_to: 1
  - symbol: Li # 20
    coordinates: [  0.557489951451619,  0.300551036993663,  0.843326767285665 ]
    mass: 6.940000
    reduced_to: 1
  - symbol: Li # 21
    coordinates: [  0.890823284784953,  0.300551036993663,  0.843326767285665 ]
    mass: 6.940000
    reduced_to: 1
  - symbol: Li # 22
    coordinates: [  0.224156618118286,  0.633884370326996,  0.843326767285665 ]
    mass: 6.940000
    reduced_to: 1
  - symbol: Li # 23
    coordinates: [  0.557489951451619,  0.633884370326996,  0.843326767285665 ]
    mass: 6.940000
    reduced_to: 1
  - symbol: Li # 24
    coordinates: [  0.890823284784953,  0.633884370326996,  0.843326767285665 ]
    mass: 6.940000
    reduced_to: 1
  - symbol: Li # 25
    coordinates: [  0.224156618118286,  0.967217703660329,  0.843326767285665 ]
    mass: 6.940000
    reduced_to: 1
  - symbol: Li # 26
    coordinates: [  0.557489951451619,  0.967217703660329,  0.843326767285665 ]
    mass: 6.940000
    reduced_to: 1
  - symbol: Li # 27
    coordinates: [  0.890823284784953,  0.967217703660329,  0.843326767285665 ]
    mass: 6.940000
    reduced_to: 1
  - symbol: Ga # 28
    coordinates: [  0.057455986738205,  0.300524791081746,  0.009952591732144 ]
    mass: 69.723000
    reduced_to: 28
  - symbol: Ga # 29
    coordinates: [  0.390789320071538,  0.300524791081746,  0.009952591732144 ]
    mass: 69.723000
    reduced_to: 28
  - symbol: Ga # 30
    coordinates: [  0.724122653404872,  0.300524791081746,  0.009952591732144 ]
    mass: 69.723000
    reduced_to: 28
  - symbol: Ga # 31
    coordinates: [  0.057455986738205,  0.633858124415080,  0.009952591732144 ]
    mass: 69.723000
    reduced_to: 28
  - symbol: Ga # 32
    coordinates: [  0.390789320071538,  0.633858124415080,  0.009952591732144 ]
    mass: 69.723000
    reduced_to: 28
  - symbol: Ga # 33
    coordinates: [  0.724122653404872,  0.633858124415080,  0.009952591732144 ]
    mass: 69.723000
    reduced_to: 28
  - symbol: Ga # 34
    coordinates: [  0.057455986738205,  0.967191457748413,  0.009952591732144 ]
    mass: 69.723000
    reduced_to: 28
  - symbol: Ga # 35
    coordinates: [  0.390789320071538,  0.967191457748413,  0.009952591732144 ]
    mass: 69.723000
    reduced_to: 28
  - symbol: Ga # 36
    coordinates: [  0.724122653404872,  0.967191457748413,  0.009952591732144 ]
    mass: 69.723000
    reduced_to: 28
  - symbol: Ga # 37
    coordinates: [  0.057455986738205,  0.300524791081746,  0.343285925065478 ]
    mass: 69.723000
    reduced_to: 28
  - symbol: Ga # 38
    coordinates: [  0.390789320071538,  0.300524791081746,  0.343285925065478 ]
    mass: 69.723000
    reduced_to: 28
  - symbol: Ga # 39
    coordinates: [  0.724122653404872,  0.300524791081746,  0.343285925065478 ]
    mass: 69.723000
    reduced_to: 28
  - symbol: Ga # 40
    coordinates: [  0.057455986738205,  0.633858124415080,  0.343285925065478 ]
    mass: 69.723000
    reduced_to: 28
  - symbol: Ga # 41
    coordinates: [  0.390789320071538,  0.633858124415080,  0.343285925065478 ]
    mass: 69.723000
    reduced_to: 28
  - symbol: Ga # 42
    coordinates: [  0.724122653404872,  0.633858124415080,  0.343285925065478 ]
    mass: 69.723000
    reduced_to: 28
  - symbol: Ga # 43
    coordinates: [  0.057455986738205,  0.967191457748413,  0.343285925065478 ]
    mass: 69.723000
    reduced_to: 28
  - symbol: Ga # 44
    coordinates: [  0.390789320071538,  0.967191457748413,  0.343285925065478 ]
    mass: 69.723000
    reduced_to: 28
  - symbol: Ga # 45
    coordinates: [  0.724122653404872,  0.967191457748413,  0.343285925065478 ]
    mass: 69.723000
    reduced_to: 28
  - symbol: Ga # 46
    coordinates: [  0.057455986738205,  0.300524791081746,  0.676619258398811 ]
    mass: 69.723000
    reduced_to: 28
  - symbol: Ga # 47
    coordinates: [  0.390789320071538,  0.300524791081746,  0.676619258398811 ]
    mass: 69.723000
    reduced_to: 28
  - symbol: Ga # 48
    coordinates: [  0.724122653404872,  0.300524791081746,  0.676619258398811 ]
    mass: 69.723000
    reduced_to: 28
  - symbol: Ga # 49
    coordinates: [  0.057455986738205,  0.633858124415080,  0.676619258398811 ]
    mass: 69.723000
    reduced_to: 28
  - symbol: Ga # 50
    coordinates: [  0.390789320071538,  0.633858124415080,  0.676619258398811 ]
    mass: 69.723000
    reduced_to: 28
  - symbol: Ga # 51
    coordinates: [  0.724122653404872,  0.633858124415080,  0.676619258398811 ]
    mass: 69.723000
    reduced_to: 28
  - symbol: Ga # 52
    coordinates: [  0.057455986738205,  0.967191457748413,  0.676619258398811 ]
    mass: 69.723000
    reduced_to: 28
  - symbol: Ga # 53
    coordinates: [  0.390789320071538,  0.967191457748413,  0.676619258398811 ]
    mass: 69.723000
    reduced_to: 28
  - symbol: Ga # 54
    coordinates: [  0.724122653404872,  0.967191457748413,  0.676619258398811 ]
    mass: 69.723000
    reduced_to: 28
  - symbol: Ga # 55
    coordinates: [  0.057471935947736,  0.133740405241648,  0.176641345024109 ]
    mass: 69.723000
    reduced_to: 55
  - symbol: Ga # 56
    coordinates: [  0.390805269281069,  0.133740405241648,  0.176641345024109 ]
    mass: 69.723000
    reduced_to: 55
  - symbol: Ga # 57
    coordinates: [  0.724138602614403,  0.133740405241648,  0.176641345024109 ]
    mass: 69.723000
    reduced_to: 55
  - symbol: Ga # 58
    coordinates: [  0.057471935947736,  0.467073738574982,  0.176641345024109 ]
    mass: 69.723000
    reduced_to: 55
  - symbol: Ga # 59
    coordinates: [  0.390805269281069,  0.467073738574982,  0.176641345024109 ]
    mass: 69.723000
    reduced_to: 55
  - symbol: Ga # 60
    coordinates: [  0.724138602614403,  0.467073738574982,  0.176641345024109 ]
    mass: 69.723000
    reduced_to: 55
  - symbol: Ga # 61
    coordinates: [  0.057471935947736,  0.800407071908315,  0.176641345024109 ]
    mass: 69.723000
    reduced_to: 55
  - symbol: Ga # 62
    coordinates: [  0.390805269281069,  0.800407071908315,  0.176641345024109 ]
    mass: 69.723000
    reduced_to: 55
  - symbol: Ga # 63
    coordinates: [  0.724138602614403,  0.800407071908315,  0.176641345024109 ]
    mass: 69.723000
    reduced_to: 55
  - symbol: Ga # 64
    coordinates: [  0.057471935947736,  0.133740405241648,  0.509974678357442 ]
    mass: 69.723000
    reduced_to: 55
  - symbol: Ga # 65
    coordinates: [  0.390805269281069,  0.133740405241648,  0.509974678357442 ]
    mass: 69.723000
    reduced_to: 55
  - symbol: Ga # 66
    coordinates: [  0.724138602614403,  0.133740405241648,  0.509974678357442 ]
    mass: 69.723000
    reduced_to: 55
  - symbol: Ga # 67
    coordinates: [  0.057471935947736,  0.467073738574982,  0.509974678357442 ]
    mass: 69.723000
    reduced_to: 55
  - symbol: Ga # 68
    coordinates: [  0.390805269281069,  0.467073738574982,  0.509974678357442 ]
    mass: 69.723000
    reduced_to: 55
  - symbol: Ga # 69
    coordinates: [  0.724138602614403,  0.467073738574982,  0.509974678357442 ]
    mass: 69.723000
    reduced_to: 55
  - symbol: Ga # 70
    coordinates: [  0.057471935947736,  0.800407071908315,  0.509974678357442 ]
    mass: 69.723000
    reduced_to: 55
  - symbol: Ga # 71
    coordinates: [  0.390805269281069,  0.800407071908315,  0.509974678357442 ]
    mass: 69.723000
    reduced_to: 55
  - symbol: Ga # 72
    coordinates: [  0.724138602614403,  0.800407071908315,  0.509974678357442 ]
    mass: 69.723000
    reduced_to: 55
  - symbol: Ga # 73
    coordinates: [  0.057471935947736,  0.133740405241648,  0.843308011690776 ]
    mass: 69.723000
    reduced_to: 55
  - symbol: Ga # 74
    coordinates: [  0.390805269281069,  0.133740405241648,  0.843308011690776 ]
    mass: 69.723000
    reduced_to: 55
  - symbol: Ga # 75
    coordinates: [  0.724138602614403,  0.133740405241648,  0.843308011690776 ]
    mass: 69.723000
    reduced_to: 55
  - symbol: Ga # 76
    coordinates: [  0.057471935947736,  0.467073738574982,  0.843308011690776 ]
    mass: 69.723000
    reduced_to: 55
  - symbol: Ga # 77
    coordinates: [  0.390805269281069,  0.467073738574982,  0.843308011690776 ]
    mass: 69.723000
    reduced_to: 55
  - symbol: Ga # 78
    coordinates: [  0.724138602614403,  0.467073738574982,  0.843308011690776 ]
    mass: 69.723000
    reduced_to: 55
  - symbol: Ga # 79
    coordinates: [  0.057471935947736,  0.800407071908315,  0.843308011690776 ]
    mass: 69.723000
    reduced_to: 55
  - symbol: Ga # 80
    coordinates: [  0.390805269281069,  0.800407071908315,  0.843308011690776 ]
    mass: 69.723000
    reduced_to: 55
  - symbol: Ga # 81
    coordinates: [  0.724138602614403,  0.800407071908315,  0.843308011690776 ]
    mass: 69.723000
    reduced_to: 55
  - symbol: Ga # 82
    coordinates: [  0.224145531654358,  0.133758415778478,  0.009938677151998 ]
    mass: 69.723000
    reduced_to: 82
  - symbol: Ga # 83
    coordinates: [  0.557478864987691,  0.133758415778478,  0.009938677151998 ]
    mass: 69.723000
    reduced_to: 82
  - symbol: Ga # 84
    coordinates: [  0.890812198321025,  0.133758415778478,  0.009938677151998 ]
    mass: 69.723000
    reduced_to: 82
  - symbol: Ga # 85
    coordinates: [  0.224145531654358,  0.467091749111811,  0.009938677151998 ]
    mass: 69.723000
    reduced_to: 82
  - symbol: Ga # 86
    coordinates: [  0.557478864987691,  0.467091749111811,  0.009938677151998 ]
    mass: 69.723000
    reduced_to: 82
  - symbol: Ga # 87
    coordinates: [  0.890812198321025,  0.467091749111811,  0.009938677151998 ]
    mass: 69.723000
    reduced_to: 82
  - symbol: Ga # 88
    coordinates: [  0.224145531654358,  0.800425082445145,  0.009938677151998 ]
    mass: 69.723000
    reduced_to: 82
  - symbol: Ga # 89
    coordinates: [  0.557478864987691,  0.800425082445145,  0.009938677151998 ]
    mass: 69.723000
    reduced_to: 82
  - symbol: Ga # 90
    coordinates: [  0.890812198321025,  0.800425082445145,  0.009938677151998 ]
    mass: 69.723000
    reduced_to: 82
  - symbol: Ga # 91
    coordinates: [  0.224145531654358,  0.133758415778478,  0.343272010485331 ]
    mass: 69.723000
    reduced_to: 82
  - symbol: Ga # 92
    coordinates: [  0.557478864987691,  0.133758415778478,  0.343272010485331 ]
    mass: 69.723000
    reduced_to: 82
  - symbol: Ga # 93
    coordinates: [  0.890812198321025,  0.133758415778478,  0.343272010485331 ]
    mass: 69.723000
    reduced_to: 82
  - symbol: Ga # 94
    coordinates: [  0.224145531654358,  0.467091749111811,  0.343272010485331 ]
    mass: 69.723000
    reduced_to: 82
  - symbol: Ga # 95
    coordinates: [  0.557478864987691,  0.467091749111811,  0.343272010485331 ]
    mass: 69.723000
    reduced_to: 82
  - symbol: Ga # 96
    coordinates: [  0.890812198321025,  0.467091749111811,  0.343272010485331 ]
    mass: 69.723000
    reduced_to: 82
  - symbol: Ga # 97
    coordinates: [  0.224145531654358,  0.800425082445145,  0.343272010485331 ]
    mass: 69.723000
    reduced_to: 82
  - symbol: Ga # 98
    coordinates: [  0.557478864987691,  0.800425082445145,  0.343272010485331 ]
    mass: 69.723000
    reduced_to: 82
  - symbol: Ga # 99
    coordinates: [  0.890812198321025,  0.800425082445145,  0.343272010485331 ]
    mass: 69.723000
    reduced_to: 82
  - symbol: Ga # 100
    coordinates: [  0.224145531654358,  0.133758415778478,  0.676605343818665 ]
    mass: 69.723000
    reduced_to: 82
  - symbol: Ga # 101
    coordinates: [  0.557478864987691,  0.133758415778478,  0.676605343818665 ]
    mass: 69.723000
    reduced_to: 82
  - symbol: Ga # 102
    coordinates: [  0.890812198321025,  0.133758415778478,  0.676605343818665 ]
    mass: 69.723000
    reduced_to: 82
  - symbol: Ga # 103
    coordinates: [  0.224145531654358,  0.467091749111811,  0.676605343818665 ]
    mass: 69.723000
    reduced_to: 82
  - symbol: Ga # 104
    coordinates: [  0.557478864987691,  0.467091749111811,  0.676605343818665 ]
    mass: 69.723000
    reduced_to: 82
  - symbol: Ga # 105
    coordinates: [  0.890812198321025,  0.467091749111811,  0.676605343818665 ]
    mass: 69.723000
    reduced_to: 82
  - symbol: Ga # 106
    coordinates: [  0.224145531654358,  0.800425082445145,  0.676605343818665 ]
    mass: 69.723000
    reduced_to: 82
  - symbol: Ga # 107
    coordinates: [  0.557478864987691,  0.800425082445145,  0.676605343818665 ]
    mass: 69.723000
    reduced_to: 82
  - symbol: Ga # 108
    coordinates: [  0.890812198321025,  0.800425082445145,  0.676605343818665 ]
    mass: 69.723000
    reduced_to: 82

displacements:
- atom:    1
  displacement:
    [   0.0100000000000000,  0.0000000000000000,  0.0000000000000000 ]
  forces:
  - [  -0.0176865626126528, -0.0031989756971598, -0.0010913163423538 ]
  - [   0.0001745689660311, -0.0032266932539642, -0.0011395867913961 ]
  - [   0.0001474857854191, -0.0032204156741500, -0.0011384431272745 ]
  - [  -0.0007330034859478, -0.0032223383896053, -0.0011380813084543 ]
  - [  -0.0009957237634808, -0.0037046521902084, -0.0011372896842659 ]
  - [  -0.0009952388936654, -0.0027441242709756, -0.0011376887559891 ]
  - [  -0.0007325763581321, -0.0032227952033281, -0.0011384165845811 ]
  - [  -0.0009961564792320, -0.0027410562615842, -0.0011376435868442 ]
  - [  -0.0009949314408004, -0.0037000868469477, -0.0011377898044884 ]
  - [  -0.0007330490043387, -0.0032234583050013, -0.0011367159895599 ]
  - [  -0.0009964570635930, -0.0032212873920798, -0.0016187643632293 ]
  - [  -0.0009966820944101, -0.0032232590019703, -0.0006575873121619 ]
  - [  -0.0005150939687155, -0.0032241162844002, -0.0011376356706023 ]
  - [  -0.0006417767144740, -0.0032903370447457, -0.0012041986919940 ]
  - [  -0.0006423792219721, -0.0031561614014208, -0.0010710484348238 ]
  - [  -0.0005154454847798, -0.0032235290855169, -0.0011376184411347 ]
  - [  -0.0006421480793506, -0.0031554293818772, -0.0012038354761899 ]
  - [  -0.0006414192612283, -0.0032892988529056, -0.0010717320255935 ]
  - [  -0.0007339711883105, -0.0032230080105364, -0.0011396819027141 ]
  - [  -0.0009983896743506, -0.0032213954254985, -0.0006544092902914 ]
  - [  -0.0009960785973817, -0.0032221679575741, -0.0016157869249582 ]
  - [  -0.0005160138243809, -0.0032226853072643, -0.0011384140234441 ]
  - [  -0.0006420955178328, -0.0032896297052503, -0.0010716734686866 ]
  - [  -0.0006418122793548, -0.0031574992462993, -0.0012040995061398 ]
  - [  -0.0005156161496416, -0.0032247134950012, -0.0011379085481167 ]
  - [  -0.0006418537232094, -0.0031561704818159, -0.0010705008171499 ]
  - [  -0.0006426423788071, -0.0032889780122787, -0.0012032533995807 ]
  - [   0.0033199151512235, -0.0026287597138435,  0.0032721790485084 ]
  - [   0.0033961166627705, -0.0026297308504581, -0.0018926499178633 ]
  - [   0.0007327818311751, -0.0026428324636072,  0.0007250787457451 ]
  - [   0.0005301896599121, -0.0023805801756680,  0.0006363477441482 ]
  - [   0.0005492218770087, -0.0028905100189149,  0.0008245383505709 ]
  - [   0.0008113696239889, -0.0026273173280060,  0.0007320704753511 ]
  - [   0.0005492004565895, -0.0029021045193076,  0.0006324321147986 ]
  - [   0.0005522654391825, -0.0023707866203040,  0.0008138085249811 ]
  - [   0.0007971548475325, -0.0026539242826402,  0.0007160486420617 ]
  - [   0.0033331471495330, -0.0026401523500681, -0.0018393050413579 ]
  - [   0.0033869706094265, -0.0026278481818736,  0.0033457872923464 ]
  - [   0.0007328926585615, -0.0026424995157868,  0.0007260788115673 ]
  - [   0.0005376048502512, -0.0023709461092949,  0.0008198742289096 ]
  - [   0.0005405778065324, -0.0028990383725613,  0.0006366843590513 ]
  - [   0.0008107335306704, -0.0026278125587851,  0.0007322408491746 ]
  - [   0.0005208393558860, -0.0029167833272368,  0.0008136634714901 ]
  - [   0.0005399021320045, -0.0023692515678704,  0.0006368529284373 ]
  - [   0.0008023916743696, -0.0026339367032051,  0.0007289595669135 ]
  - [   0.0006552754784934, -0.0026458981446922,  0.0007190459873527 ]
  - [   0.0006562215276062, -0.0026453651953489,  0.0007177856750786 ]
  - [   0.0007817721925676, -0.0026621387805790,  0.0007123912801035 ]
  - [   0.0006909434450790, -0.0027190570253879,  0.0007255410309881 ]
  - [   0.0006828564219177, -0.0025749786291271,  0.0007222377462313 ]
  - [   0.0006859963759780, -0.0026510467287153,  0.0007231805357151 ]
  - [   0.0007070950232446, -0.0025508916005492,  0.0007325318874791 ]
  - [   0.0006909389048815, -0.0027187415398657,  0.0007258832920343 ]
  - [   0.0006851376965642, -0.0026515438221395,  0.0007236629026011 ]
  - [   0.0028731906786561,  0.0056826327927411, -0.0007188157178462 ]
  - [   0.0029378486797214,  0.0005848769214936, -0.0007235431112349 ]
  - [   0.0003203675150871,  0.0031800109427422, -0.0007260642014444 ]
  - [   0.0028968909755349,  0.0006114721181802, -0.0007185906288214 ]
  - [   0.0029465658590198,  0.0057706777006388, -0.0007140979287215 ]
  - [   0.0003185737878084,  0.0031659640371799, -0.0007112385355867 ]
  - [   0.0002339780330658,  0.0031684318091720, -0.0007160261739045 ]
  - [   0.0002347016707063,  0.0031671733595431, -0.0007157993386500 ]
  - [   0.0003748564049602,  0.0031791913788766, -0.0007262747967616 ]
  - [   0.0001195875520352,  0.0030786162242293, -0.0004525406984612 ]
  - [   0.0001131650060415,  0.0032733692787588, -0.0009873730596155 ]
  - [   0.0003877743147314,  0.0031923921778798, -0.0007392436964437 ]
  - [   0.0001096422784030,  0.0032722998876125, -0.0004608868039213 ]
  - [   0.0001081512309611,  0.0030826532747597, -0.0009842382278293 ]
  - [   0.0003744917921722,  0.0031800763681531, -0.0007250434719026 ]
  - [   0.0002803043462336,  0.0031681796535850, -0.0007900698692538 ]
  - [   0.0002718451432884,  0.0031788039486855, -0.0006492639076896 ]
  - [   0.0002891593612731,  0.0031902650371194, -0.0007385592907667 ]
  - [   0.0001151389442384,  0.0031159841455519, -0.0009719246299937 ]
  - [   0.0001183659769595,  0.0032979275565594, -0.0004461185308173 ]
  - [   0.0003930535167456,  0.0031977759208530, -0.0007050028652884 ]
  - [   0.0001213597133756,  0.0032770405523479, -0.0009937344584614 ]
  - [   0.0001248945482075,  0.0030907704494894, -0.0004636092635337 ]
  - [   0.0003827977925539,  0.0031805441249162, -0.0007249583140947 ]
  - [   0.0002836431376636,  0.0031845641788095, -0.0006545548676513 ]
  - [   0.0002837870270014,  0.0031837394926697, -0.0008051646873355 ]
  - [   0.0003001033328474,  0.0031769487541169, -0.0007253670482896 ]
  - [   0.0000180302595254,  0.0026960943359882,  0.0011373087763786 ]
  - [  -0.0006488990038633,  0.0028832589741796,  0.0013196701183915 ]
  - [  -0.0006525151547976,  0.0024811241310090,  0.0009412080980837 ]
  - [   0.0000240470690187,  0.0026761731132865,  0.0011396487243474 ]
  - [  -0.0006432144436985,  0.0024927353952080,  0.0013195215724409 ]
  - [  -0.0006556154112332,  0.0028785178437829,  0.0009241974912584 ]
  - [  -0.0003793825162575,  0.0026802849024534,  0.0011211605742574 ]
  - [  -0.0003848528722301,  0.0026801363565028,  0.0010998123325408 ]
  - [  -0.0003652648010757,  0.0026852532755584,  0.0011624149046838 ]
  - [   0.0000403930898756,  0.0027119484730065,  0.0011142403818667 ]
  - [  -0.0006511862156913,  0.0028571211732924,  0.0009463662281632 ]
  - [  -0.0006228842539713,  0.0025014248676598,  0.0013327579945326 ]
  - [   0.0000280175881926,  0.0026649257633835,  0.0011115930974483 ]
  - [  -0.0006264335243031,  0.0024972322862595,  0.0009333784691989 ]
  - [  -0.0006435650284402,  0.0028753136284649,  0.0013200128450990 ]
  - [  -0.0003635680768639,  0.0026895126793534,  0.0011219987645745 ]
  - [  -0.0003764498978853,  0.0026612204965204,  0.0011618873104453 ]
  - [  -0.0003537507145666,  0.0026901289820671,  0.0011093909852207 ]
  - [  -0.0003617749607656,  0.0026782136410475,  0.0011452874168754 ]
  - [  -0.0003688841825351,  0.0026475386694074,  0.0011424613185227 ]
  - [  -0.0003844744933303,  0.0027049393393099,  0.0011345925740898 ]
  - [  -0.0003618032787926,  0.0026773498393595,  0.0011451700702310 ]
  - [  -0.0003352203057148,  0.0027241108473390,  0.0011421726085246 ]
  - [  -0.0003687463467941,  0.0026463440153748,  0.0011429279111326 ]
  - [  -0.0003712709294632,  0.0026701958850026,  0.0011410596780479 ]
  - [  -0.0003518281155266,  0.0026871019508690,  0.0011468641459942 ]
  - [  -0.0003675974730868,  0.0026981688570231,  0.0011391500011086 ]
- atom:    1
  displacement:
    [  -0.0100000000000000,  0.0000000000000000,  0.0000000000000000 ]
  forces:
  - [   0.0164610855281353, -0.0032481043599546, -0.0011852267198265 ]
  - [  -0.0013723184820265, -0.0032217232510448, -0.0011369897983968 ]
  - [  -0.0013994299806654, -0.0032238005660474, -0.0011375951580703 ]
  - [  -0.0004921933868900, -0.0032225507311523, -0.0011367765255272 ]
  - [  -0.0002300879277755, -0.0027452032081783, -0.0011378764174879 ]
  - [  -0.0002276705927216, -0.0037065865471959, -0.0011380733922124 ]
  - [  -0.0004920134088024, -0.0032226992771029, -0.0011372868902981 ]
  - [  -0.0002287535025971, -0.0037033066619188, -0.0011385413818061 ]
  - [  -0.0002291556447744, -0.0027412828058004, -0.0011379374191165 ]
  - [  -0.0004913179436699, -0.0032227663323283, -0.0011380417272449 ]
  - [  -0.0002292201825185, -0.0032225903123617, -0.0006602020002902 ]
  - [  -0.0002260224864585, -0.0032223300077021, -0.0016222978010774 ]
  - [  -0.0007097559282556, -0.0032233484089375, -0.0011369679123163 ]
  - [  -0.0005830533336848, -0.0031587397679687, -0.0010720263235271 ]
  - [  -0.0005830870941281, -0.0032893740572035, -0.0012045879848301 ]
  - [  -0.0007090743165463, -0.0032238068524748, -0.0011374782770872 ]
  - [  -0.0005836426280439, -0.0032880967482924, -0.0010716402903199 ]
  - [  -0.0005827986751683, -0.0031565707176924, -0.0012041595764458 ]
  - [  -0.0004922045627609, -0.0032224850729108, -0.0011382069205865 ]
  - [  -0.0002277240855619, -0.0032225926406682, -0.0016191531904042 ]
  - [  -0.0002288333344040, -0.0032216208055615, -0.0006571887061000 ]
  - [  -0.0007097260095179, -0.0032225684262812, -0.0011385824764147 ]
  - [  -0.0005832345923409, -0.0031570731662214, -0.0012044500326738 ]
  - [  -0.0005831930320710, -0.0032895421609282, -0.0010718195699155 ]
  - [  -0.0007103070383891, -0.0032243896275759, -0.0011375499889255 ]
  - [  -0.0005824661348015, -0.0032900653313845, -0.0012044119648635 ]
  - [  -0.0005836167256348, -0.0031568431295455, -0.0010711392387748 ]
  - [  -0.0019586812704802, -0.0026256740093231, -0.0018690318102017 ]
  - [  -0.0019243871793151, -0.0026218919083476,  0.0032966169528663 ]
  - [   0.0006507094949484, -0.0026428429409862,  0.0007257080869749 ]
  - [   0.0008514940273017, -0.0029076195787638,  0.0008179337601177 ]
  - [   0.0008699358440936, -0.0023631530348212,  0.0006415775278583 ]
  - [   0.0006050704978406, -0.0026269010268152,  0.0007319576106966 ]
  - [   0.0008712867274880, -0.0023735309951007,  0.0008131772046909 ]
  - [   0.0008736047893763, -0.0029022167436779,  0.0006322809495032 ]
  - [   0.0005927602760494, -0.0026542535051703,  0.0007160134264268 ]
  - [  -0.0019907094538212, -0.0026299222372472,  0.0033584195189178 ]
  - [  -0.0019151456654072, -0.0026264097541571, -0.0018229006091133 ]
  - [   0.0006506638601422, -0.0026426711119711,  0.0007264005253091 ]
  - [   0.0008580807480030, -0.0028990220744163,  0.0006370798218995 ]
  - [   0.0008617690764368, -0.0023728189989924,  0.0008195923874155 ]
  - [   0.0006043608300388, -0.0026278644800186,  0.0007320070872083 ]
  - [   0.0008426369167864, -0.0023846938274801,  0.0006313374033198 ]
  - [   0.0008621937595308, -0.0029009087011218,  0.0008187980274670 ]
  - [   0.0005971738137305, -0.0026340098120272,  0.0007287168409675 ]
  - [   0.0007504982058890, -0.0026455528568476,  0.0007182197296061 ]
  - [   0.0007512848824263, -0.0026456960476935,  0.0007181253167801 ]
  - [   0.0005913474597037, -0.0026622035074979,  0.0007132988539524 ]
  - [   0.0006930484087206, -0.0025671180337667,  0.0007260169950314 ]
  - [   0.0006850133650005, -0.0027270363643765,  0.0007223456632346 ]
  - [   0.0006817318499088, -0.0026508010923862,  0.0007229858892970 ]
  - [   0.0007091346196830, -0.0027018254622817,  0.0007326400373131 ]
  - [   0.0006933258846402, -0.0025677210651338,  0.0007263076258823 ]
  - [   0.0006807837635279, -0.0026515792123973,  0.0007237204699777 ]
  - [  -0.0023628226481378,  0.0005979718407616, -0.0007125653792173 ]
  - [  -0.0023188902996480,  0.0056935260072351, -0.0007081100484356 ]
  - [   0.0002398379147053,  0.0031802670564502, -0.0007263779407367 ]
  - [  -0.0023977877572179,  0.0057789548300207, -0.0007024864898995 ]
  - [  -0.0023352294228971,  0.0006203430821188, -0.0007087393314578 ]
  - [   0.0002367212437093,  0.0031663267873228, -0.0007112444145605 ]
  - [   0.0003287098370492,  0.0031667773146182, -0.0007158895023167 ]
  - [   0.0003294702619314,  0.0031685205176473, -0.0007157045183703 ]
  - [   0.0001850086264312,  0.0031795674003661, -0.0007262562867254 ]
  - [   0.0004413114220370,  0.0032609200570732, -0.0009785769507289 ]