# Thermal properties / unit cell (natom)

unit:
  temperature:   K
  free_energy:   kJ/mol
  entropy:       J/K/mol
  heat_capacity: J/K/mol

natom: 4    
cutoff_frequency: 0.00000
num_modes: 214272
num_integrated_modes: 180289

zero_point_energy:       4.5634252

thermal_properties:
- temperature:         0.0000000
  free_energy:         4.5634252
  entropy:             0.0000000
  heat_capacity:       0.0000000
  energy:              4.5634252

- temperature:        10.0000000
  free_energy:         4.5444043
  entropy:             5.7376389
  heat_capacity:      10.7123264
  energy:              4.6017807

- temperature:        20.0000000
  free_energy:         4.4267631
  entropy:            18.2433062
  heat_capacity:      27.0674698
  energy:              4.7916292

- temperature:        30.0000000
  free_energy:         4.1759763
  entropy:            31.9098117
  heat_capacity:      40.6106420
  energy:              5.1332706

- temperature:        40.0000000
  free_energy:         3.7905430
  entropy:            45.0221908
  heat_capacity:      50.4810785
  energy:              5.5914306

- temperature:        50.0000000
  free_energy:         3.2790337
  entropy:            57.0970550
  heat_capacity:      57.6390683
  energy:              6.1338865

- temperature:        60.0000000
  free_energy:         2.6521962
  entropy:            68.0970566
  heat_capacity:      62.9293407
  energy:              6.7380196

- temperature:        70.0000000
  free_energy:         1.9203838
  entropy:            78.1103299
  heat_capacity:      66.9038649
  energy:              7.3881069

- temperature:        80.0000000
  free_energy:         1.0928986
  entropy:            87.2507133
  heat_capacity:      69.9323661
  energy:              8.0729557

- temperature:        90.0000000
  free_energy:         0.1779105
  entropy:            95.6283790
  heat_capacity:      72.2715298
  energy:              8.7844646

- temperature:       100.0000000
  free_energy:        -0.8174555
  entropy:           103.3415388
  heat_capacity:      74.1026306
  energy:              9.5166984

- temperature:       110.0000000
  free_energy:        -1.8869893
  entropy:           110.4749787
  heat_capacity:      75.5548877
  energy:             10.2652584

- temperature:       120.0000000
  free_energy:        -3.0252646
  entropy:           117.1009201
  heat_capacity:      76.7211995
  energy:             11.0268458

- temperature:       130.0000000
  free_energy:        -4.2275211
  entropy:           123.2805932
  heat_capacity:      77.6689973
  energy:             11.7989560

- temperature:       140.0000000
  free_energy:        -5.4895628
  entropy:           129.0659033
  heat_capacity:      78.4477549
  energy:             12.5796637

- temperature:       150.0000000
  free_energy:        -6.8076724
  entropy:           134.5009559
  heat_capacity:      79.0941874
  energy:             13.3674710

- temperature:       160.0000000
  free_energy:        -8.1785404
  entropy:           139.6233708
  heat_capacity:      79.6358598
  energy:             14.1611989

- temperature:       170.0000000
  free_energy:        -9.5992056
  entropy:           144.4653820
  heat_capacity:      80.0937067
  energy:             14.9599093

- temperature:       180.0000000
  free_energy:       -11.0670063
  entropy:           149.0547440
  heat_capacity:      80.4838061
  energy:             15.7628476

- temperature:       190.0000000
  free_energy:       -12.5795388
  entropy:           153.4154750
  heat_capacity:      80.8186384
  energy:             16.5694015

- temperature:       200.0000000
  free_energy:       -14.1346236
  entropy:           157.5684632
  heat_capacity:      81.1079910
  energy:             17.3790690

- temperature:       210.0000000
  free_energy:       -15.7302766
  entropy:           161.5319636
  heat_capacity:      81.3596134
  energy:             18.1914357

- temperature:       220.0000000
  free_energy:       -17.3646849
  entropy:           165.3220054
  heat_capacity:      81.5796973
  energy:             19.0061563

- temperature:       230.0000000
  free_energy:       -19.0361859
  entropy:           168.9527266
  heat_capacity:      81.7732324
  energy:             19.8229413

- temperature:       240.0000000
  free_energy:       -20.7432502
  entropy:           172.4366512
  heat_capacity:      81.9442715
  energy:             20.6415461

- temperature:       250.0000000
  free_energy:       -22.4844668
  entropy:           175.7849186
  heat_capacity:      82.0961321
  energy:             21.4617628

- temperature:       260.0000000
  free_energy:       -24.2585297
  entropy:           179.0074755
  heat_capacity:      82.2315481
  energy:             22.2834139

- temperature:       270.0000000
  free_energy:       -26.0642271
  entropy:           182.1132359
  heat_capacity:      82.3527882
  energy:             23.1063466

- temperature:       280.0000000
  free_energy:       -27.9004319
  entropy:           185.1102167
  heat_capacity:      82.4617465
  energy:             23.9304288

- temperature:       290.0000000
  free_energy:       -29.7660930
  entropy:           188.0056515
  heat_capacity:      82.5600137
  energy:             24.7555459

- temperature:       300.0000000
  free_energy:       -31.6602283
  entropy:           190.8060875
  heat_capacity:      82.6489333
  energy:             25.5815979

- temperature:       310.0000000
  free_energy:       -33.5819180
  entropy:           193.5174685
  heat_capacity:      82.7296456
  energy:             26.4084972

- temperature:       320.0000000
  free_energy:       -35.5302989
  entropy:           196.1452053
  heat_capacity:      82.8031235
  energy:             27.2361667

- temperature:       330.0000000
  free_energy:       -37.5045598
  entropy:           198.6942369
  heat_capacity:      82.8702008
  energy:             28.0645384

- temperature:       340.0000000
  free_energy:       -39.5039364
  entropy:           201.1690831
  heat_capacity:      82.9315954
  energy:             28.8935518

- temperature:       350.0000000
  free_energy:       -41.5277080
  entropy:           203.5738899
  heat_capacity:      82.9879278
  energy:             29.7231534

- temperature:       360.0000000
  free_energy:       -43.5751935
  entropy:           205.9124689
  heat_capacity:      83.0397367
  energy:             30.5532953

- temperature:       370.0000000
  free_energy:       -45.6457484
  entropy:           208.1883325
  heat_capacity:      83.0874911
  energy:             31.3839346

- temperature:       380.0000000
  free_energy:       -47.7387619
  entropy:           210.4047235
  heat_capacity:      83.1316013
  energy:             32.2150330

- temperature:       390.0000000
  free_energy:       -49.8536546
  entropy:           212.5646420
  heat_capacity:      83.1724271
  energy:             33.0465557

- temperature:       400.0000000
  free_energy:       -51.9898758
  entropy:           214.6708687
  heat_capacity:      83.2102853
  energy:             33.8784716

- temperature:       410.0000000
  free_energy:       -54.1469017
  entropy:           216.7259857
  heat_capacity:      83.2454554
  energy:             34.7107525

- temperature:       420.0000000
  free_energy:       -56.3242332
  entropy:           218.7323948
  heat_capacity:      83.2781850
  energy:             35.5433726

- temperature:       430.0000000
  free_energy:       -58.5213947
  entropy:           220.6923336
  heat_capacity:      83.3086939
  energy:             36.3763088

- temperature:       440.0000000
  free_energy:       -60.7379320
  entropy:           222.6078902
  heat_capacity:      83.3371778
  energy:             37.2095397

- temperature:       450.0000000
  free_energy:       -62.9734111
  entropy:           224.4810161
  heat_capacity:      83.3638114
  energy:             38.0430462

- temperature:       460.0000000
  free_energy:       -65.2274169
  entropy:           226.3135375
  heat_capacity:      83.3887511
  energy:             38.8768103

- temperature:       470.0000000
  free_energy:       -67.4995522
  entropy:           228.1071664
  heat_capacity:      83.4121369
  energy:             39.7108160

- temperature:       480.0000000
  free_energy:       -69.7894360
  entropy:           229.8635090
  heat_capacity:      83.4340951
  energy:             40.5450483

- temperature:       490.0000000
  free_energy:       -72.0967031
  entropy:           231.5840748
  heat_capacity:      83.4547391
  energy:             41.3794935

- temperature:       500.0000000
  free_energy:       -74.4210030
  entropy:           233.2702841
  heat_capacity:      83.4741714
  energy:             42.2141391

- temperature:       510.0000000
  free_energy:       -76.7619987
  entropy:           234.9234745
  heat_capacity:      83.4924848
  energy:             43.0489732

- temperature:       520.0000000
  free_energy:       -79.1193666
  entropy:           236.5449075
  heat_capacity:      83.5097633
  energy:             43.8839853

- temperature:       530.0000000
  free_energy:       -81.4927950
  entropy:           238.1357742
  heat_capacity:      83.5260832
  energy:             44.7191653

- temperature:       540.0000000
  free_energy:       -83.8819840
  entropy:           239.6971999
  heat_capacity:      83.5415141
  energy:             45.5545040

- temperature:       550.0000000
  free_energy:       -86.2866444
  entropy:           241.2302496
  heat_capacity:      83.5561192
  energy:             46.3899928

- temperature:       560.0000000
  free_energy:       -88.7064977
  entropy:           242.7359314
  heat_capacity:      83.5699561
  energy:             47.2256238

- temperature:       570.0000000
  free_energy:       -91.1412750
  entropy:           244.2152010
  heat_capacity:      83.5830779
  energy:             48.0613896

- temperature:       580.0000000
  free_energy:       -93.5907167
  entropy:           245.6689654
  heat_capacity:      83.5955327
  energy:             48.8972832

- temperature:       590.0000000
  free_energy:       -96.0545722
  entropy:           247.0980853
  heat_capacity:      83.6073650
  energy:             49.7332982

- temperature:       600.0000000
  free_energy:       -98.5325990
  entropy:           248.5033793
  heat_capacity:      83.6186154
  energy:             50.5694285

- temperature:       610.0000000
  free_energy:      -101.0245630
  entropy:           249.8856256
  heat_capacity:      83.6293215
  energy:             51.4056686

- temperature:       620.0000000
  free_energy:      -103.5302372
  entropy:           251.2455652
  heat_capacity:      83.6395177
  energy:             52.2420133

- temperature:       630.0000000
  free_energy:      -106.0494023
  entropy:           252.5839042
  heat_capacity:      83.6492358
  energy:             53.0784574

- temperature:       640.0000000
  free_energy:      -108.5818455
  entropy:           253.9013156
  heat_capacity:      83.6585052
  energy:             53.9149965

- temperature:       650.0000000
  free_energy:      -111.1273610
  entropy:           255.1984416
  heat_capacity:      83.6673531
  energy:             54.7516261

- temperature:       660.0000000
  free_energy:      -113.6857488
  entropy:           256.4758955
  heat_capacity:      83.6758046
  energy:             55.5883422

- temperature:       670.0000000
  free_energy:      -116.2568152
  entropy:           257.7342630
  heat_capacity:      83.6838830
  energy:             56.4251410

- temperature:       680.0000000
  free_energy:      -118.8403723
  entropy:           258.9741044
  heat_capacity:      83.6916099
  energy:             57.2620187

- temperature:       690.0000000
  free_energy:      -121.4362374
  entropy:           260.1959557
  heat_capacity:      83.6990054
  energy:             58.0989720

- temperature:       700.0000000
  free_energy:      -124.0442332
  entropy:           261.4003299
  heat_capacity:      83.7060881
  energy:             58.9359978

- temperature:       710.0000000
  free_energy:      -126.6641874
  entropy:           262.5877186
  heat_capacity:      83.7128754
  energy:             59.7730928

- temperature:       720.0000000
  free_energy:      -129.2959325
  entropy:           263.7585928
  heat_capacity:      83.7193835
  energy:             60.6102543

- temperature:       730.0000000
  free_energy:      -131.9393057
  entropy:           264.9134045
  heat_capacity:      83.7256274
  energy:             61.4474796

- temperature:       740.0000000
  free_energy:      -134.5941485
  entropy:           266.0525872
  heat_capacity:      83.7316213
  energy:             62.2847661

- temperature:       750.0000000
  free_energy:      -137.2603067
  entropy:           267.1765573
  heat_capacity:      83.7373783
  energy:             63.1221112

- temperature:       760.0000000
  free_energy:      -139.9376302
  entropy:           268.2857146
  heat_capacity:      83.7429107
  energy:             63.9595129

- temperature:       770.0000000
  free_energy:      -142.6259729
  entropy:           269.3804437
  heat_capacity:      83.7482300
  energy:             64.7969688

- temperature:       780.0000000
  free_energy:      -145.3251923
  entropy:           270.4611142
  heat_capacity:      83.7533470
  energy:             65.6344768

- temperature:       790.0000000
  free_energy:      -148.0351495
  entropy:           271.5280817
  heat_capacity:      83.7582719
  energy:             66.4720351

- temperature:       800.0000000
  free_energy:      -150.7557094
  entropy:           272.5816887
  heat_capacity:      83.7630141
  energy:             67.3096416

- temperature:       810.0000000
  free_energy:      -153.4867399
  entropy:           273.6222650
  heat_capacity:      83.7675826
  energy:             68.1472948

- temperature:       820.0000000
  free_energy:      -156.2281123
  entropy:           274.6501281
  heat_capacity:      83.7719856
  energy:             68.9849927

- temperature:       830.0000000
  free_energy:      -158.9797011
  entropy:           275.6655843
  heat_capacity:      83.7762312
  energy:             69.8227339

- temperature:       840.0000000
  free_energy:      -161.7413836
  entropy:           276.6689291
  heat_capacity:      83.7803267
  energy:             70.6605169

- temperature:       850.0000000
  free_energy:      -164.5130402
  entropy:           277.6604473
  heat_capacity:      83.7842790
  energy:             71.4983400

- temperature:       860.0000000
  free_energy:      -167.2945540
  entropy:           278.6404140
  heat_capacity:      83.7880949
  energy:             72.3362020

- temperature:       870.0000000
  free_energy:      -170.0858109
  entropy:           279.6090947
  heat_capacity:      83.7917804
  energy:             73.1741015

- temperature:       880.0000000
  free_energy:      -172.8866992
  entropy:           280.5667459
  heat_capacity:      83.7953415
  energy:             74.0120372

- temperature:       890.0000000
  free_energy:      -175.6971099
  entropy:           281.5136155
  heat_capacity:      83.7987837
  energy:             74.8500079

- temperature:       900.0000000
  free_energy:      -178.5169363
  entropy:           282.4499431
  heat_capacity:      83.8021122
  energy:             75.6880125

- temperature:       910.0000000
  free_energy:      -181.3460744
  entropy:           283.3759606
  heat_capacity:      83.8053320
  energy:             76.5260498

- temperature:       920.0000000
  free_energy:      -184.1844219
  entropy:           284.2918921
  heat_capacity:      83.8084477
  energy:             77.3641188

- temperature:       930.0000000
  free_energy:      -187.0318793
  entropy:           285.1979545
  heat_capacity:      83.8114638
  energy:             78.2022184

- temperature:       940.0000000
  free_energy:      -189.8883488
  entropy:           286.0943580
  heat_capacity:      83.8143844
  energy:             79.0403477

- temperature:       950.0000000
  free_energy:      -192.7537349
  entropy:           286.9813060
  heat_capacity:      83.8172137
  energy:             79.8785058

- temperature:       960.0000000
  free_energy:      -195.6279441
  entropy:           287.8589956
  heat_capacity:      83.8199552
  energy:             80.7166917

- temperature:       970.0000000
  free_energy:      -198.5108846
  entropy:           288.7276178
  heat_capacity:      83.8226127
  energy:             81.5549046

- temperature:       980.0000000
  free_energy:      -201.4024668
  entropy:           289.5873577
  heat_capacity:      83.8251895
  energy:             82.3931437

- temperature:       990.0000000
  free_energy:      -204.3026028
  entropy:           290.4383949
  heat_capacity:      83.8276888
  energy:             83.2314081

- temperature:      1000.0000000
  free_energy:      -207.2112063
  entropy:           291.2809035
  heat_capacity:      83.8301138
  energy:             84.0696972
