# Thermal properties / unit cell (natom)

unit:
  temperature:   K
  free_energy:   kJ/mol
  entropy:       J/K/mol
  heat_capacity: J/K/mol

natom: 4    
cutoff_frequency: 0.00000
num_modes: 210912
num_integrated_modes: 210910

zero_point_energy:      16.7958094

thermal_properties:
- temperature:         0.0000000
  free_energy:        16.7958094
  entropy:             0.0000000
  heat_capacity:       0.0000000
  energy:             16.7958094

- temperature:        10.0000000
  free_energy:        16.7949925
  entropy:             0.2945720
  heat_capacity:       0.8438610
  energy:             16.7979382

- temperature:        20.0000000
  free_energy:        16.7844655
  entropy:             2.1532815
  heat_capacity:       5.6740002
  energy:             16.8275311

- temperature:        30.0000000
  free_energy:        16.7465727
  entropy:             5.5929588
  heat_capacity:      11.5694735
  energy:             16.9143615

- temperature:        40.0000000
  free_energy:        16.6706969
  entropy:             9.6312958
  heat_capacity:      16.6385403
  energy:             17.0559487

- temperature:        50.0000000
  free_energy:        16.5533672
  entropy:            13.8531281
  heat_capacity:      21.3637879
  energy:             17.2460236

- temperature:        60.0000000
  free_energy:        16.3933288
  entropy:            18.1686430
  heat_capacity:      26.1454291
  energy:             17.4834474

- temperature:        70.0000000
  free_energy:        16.1897157
  entropy:            22.5677308
  heat_capacity:      31.0791615
  energy:             17.7694568

- temperature:        80.0000000
  free_energy:        15.9417122
  entropy:            27.0450056
  heat_capacity:      36.0957113
  energy:             18.1053127

- temperature:        90.0000000
  free_energy:        15.6486069
  entropy:            31.5845724
  heat_capacity:      41.0667336
  energy:             18.4912184

- temperature:       100.0000000
  free_energy:        15.3098948
  entropy:            36.1618065
  heat_capacity:      45.8673318
  energy:             18.9260755

- temperature:       110.0000000
  free_energy:        14.9253392
  entropy:            40.7485600
  heat_capacity:      50.4039041
  energy:             19.4076808

- temperature:       120.0000000
  free_energy:        14.4949835
  entropy:            45.3174756
  heat_capacity:      54.6196353
  energy:             19.9330806

- temperature:       130.0000000
  free_energy:        14.0191297
  entropy:            49.8445188
  heat_capacity:      58.4892403
  energy:             20.4989172

- temperature:       140.0000000
  free_energy:        13.4982987
  entropy:            54.3100271
  heat_capacity:      62.0104847
  energy:             21.1017025

- temperature:       150.0000000
  free_energy:        12.9331854
  entropy:            58.6988130
  heat_capacity:      65.1961534
  energy:             21.7380073

- temperature:       160.0000000
  free_energy:        12.3246156
  entropy:            62.9997661
  heat_capacity:      68.0677434
  energy:             22.4045782

- temperature:       170.0000000
  free_energy:        11.6735086
  entropy:            67.2052491
  heat_capacity:      70.6510008
  energy:             23.0984010

- temperature:       180.0000000
  free_energy:        10.9808451
  entropy:            71.3104569
  heat_capacity:      72.9729874
  energy:             23.8167274

- temperature:       190.0000000
  free_energy:        10.2476425
  entropy:            75.3128216
  heat_capacity:      75.0602793
  energy:             24.5570786

- temperature:       200.0000000
  free_energy:         9.4749345
  entropy:            79.2114998
  heat_capacity:      76.9379443
  energy:             25.3172344

- temperature:       210.0000000
  free_energy:         8.6637567
  entropy:            83.0069481
  heat_capacity:      78.6290320
  energy:             26.0952158

- temperature:       220.0000000
  free_energy:         7.8151350
  entropy:            86.7005813
  heat_capacity:      80.1543836
  energy:             26.8892629

- temperature:       230.0000000
  free_energy:         6.9300775
  entropy:            90.2945038
  heat_capacity:      81.5326345
  energy:             27.6978133

- temperature:       240.0000000
  free_energy:         6.0095687
  entropy:            93.7912995
  heat_capacity:      82.7803253
  energy:             28.5194806

- temperature:       250.0000000
  free_energy:         5.0545656
  entropy:            97.1938718
  heat_capacity:      83.9120662
  energy:             29.3530335

- temperature:       260.0000000
  free_energy:         4.0659950
  entropy:           100.5053210
  heat_capacity:      84.9407248
  energy:             30.1973785

- temperature:       270.0000000
  free_energy:         3.0447522
  entropy:           103.7288521
  heat_capacity:      85.8776149
  energy:             31.0515423

- temperature:       280.0000000
  free_energy:         1.9917002
  entropy:           106.8677069
  heat_capacity:      86.7326782
  energy:             31.9146581

- temperature:       290.0000000
  free_energy:         0.9076696
  entropy:           109.9251130
  heat_capacity:      87.5146507
  energy:             32.7859523

- temperature:       300.0000000
  free_energy:        -0.2065411
  entropy:           112.9042479
  heat_capacity:      88.2312141
  energy:             33.6647332

- temperature:       310.0000000
  free_energy:        -1.3501648
  entropy:           115.8082130
  heat_capacity:      88.8891292
  energy:             34.5503812

- temperature:       320.0000000
  free_energy:        -2.5224649
  entropy:           118.6400160
  heat_capacity:      89.4943541
  energy:             35.4423403

- temperature:       330.0000000
  free_energy:        -3.7227343
  entropy:           121.4025592
  heat_capacity:      90.0521476
  energy:             36.3401103

- temperature:       340.0000000
  free_energy:        -4.9502945
  entropy:           124.0986328
  heat_capacity:      90.5671586
  energy:             37.2432407

- temperature:       350.0000000
  free_energy:        -6.2044943
  entropy:           126.7309112
  heat_capacity:      91.0435042
  energy:             38.1513246

- temperature:       360.0000000
  free_energy:        -7.4847086
  entropy:           129.3019519
  heat_capacity:      91.4848374
  energy:             39.0639941

- temperature:       370.0000000
  free_energy:        -8.7903374
  entropy:           131.8141970
  heat_capacity:      91.8944050
  energy:             39.9809155

- temperature:       380.0000000
  free_energy:       -10.1208043
  entropy:           134.2699745
  heat_capacity:      92.2750989
  energy:             40.9017860

- temperature:       390.0000000
  free_energy:       -11.4755560
  entropy:           136.6715023
  heat_capacity:      92.6294994
  energy:             41.8263299

- temperature:       400.0000000
  free_energy:       -12.8540606
  entropy:           139.0208916
  heat_capacity:      92.9599130
  energy:             42.7542960

- temperature:       410.0000000
  free_energy:       -14.2558068
  entropy:           141.3201509
  heat_capacity:      93.2684059
  energy:             43.6854551

- temperature:       420.0000000
  free_energy:       -15.6803029
  entropy:           143.5711909
  heat_capacity:      93.5568322
  energy:             44.6195973

- temperature:       430.0000000
  free_energy:       -17.1270759
  entropy:           145.7758287
  heat_capacity:      93.8268587
  energy:             45.5565304

- temperature:       440.0000000
  free_energy:       -18.5956706
  entropy:           147.9357925
  heat_capacity:      94.0799864
  energy:             46.4960781

- temperature:       450.0000000
  free_energy:       -20.0856484
  entropy:           150.0527260
  heat_capacity:      94.3175698
  energy:             47.4380783

- temperature:       460.0000000
  free_energy:       -21.5965869
  entropy:           152.1281928
  heat_capacity:      94.5408332
  energy:             48.3823818

- temperature:       470.0000000
  free_energy:       -23.1280790
  entropy:           154.1636807
  heat_capacity:      94.7508847
  energy:             49.3288510

- temperature:       480.0000000
  free_energy:       -24.6797320
  entropy:           156.1606058
  heat_capacity:      94.9487295
  energy:             50.2773588

- temperature:       490.0000000
  free_energy:       -26.2511670
  entropy:           158.1203163
  heat_capacity:      95.1352804
  energy:             51.2277879

- temperature:       500.0000000
  free_energy:       -27.8420185
  entropy:           160.0440962
  heat_capacity:      95.3113682
  energy:             52.1800296

- temperature:       510.0000000
  free_energy:       -29.4519333
  entropy:           161.9331691
  heat_capacity:      95.4777496
  energy:             53.1339829

- temperature:       520.0000000
  free_energy:       -31.0805701
  entropy:           163.7887012
  heat_capacity:      95.6351152
  energy:             54.0895545

- temperature:       530.0000000
  free_energy:       -32.7275992
  entropy:           165.6118048
  heat_capacity:      95.7840961
  energy:             55.0466573

- temperature:       540.0000000
  free_energy:       -34.3927017
  entropy:           167.4035409
  heat_capacity:      95.9252702
  energy:             56.0052104

- temperature:       550.0000000
  free_energy:       -36.0755689
  entropy:           169.1649224
  heat_capacity:      96.0591667
  energy:             56.9651385

- temperature:       560.0000000
  free_energy:       -37.7759021
  entropy:           170.8969165
  heat_capacity:      96.1862715
  energy:             57.9263711

- temperature:       570.0000000
  free_energy:       -39.4934123
  entropy:           172.6004475
  heat_capacity:      96.3070311
  energy:             58.8888427

- temperature:       580.0000000
  free_energy:       -41.2278192
  entropy:           174.2763985
  heat_capacity:      96.4218562
  energy:             59.8524920

- temperature:       590.0000000
  free_energy:       -42.9788512
  entropy:           175.9256144
  heat_capacity:      96.5311254
  energy:             60.8172613

- temperature:       600.0000000
  free_energy:       -44.7462450
  entropy:           177.5489036
  heat_capacity:      96.6351878
  energy:             61.7830971

- temperature:       610.0000000
  free_energy:       -46.5297454
  entropy:           179.1470397
  heat_capacity:      96.7343656
  energy:             62.7499488

- temperature:       620.0000000
  free_energy:       -48.3291045
  entropy:           180.7207639
  heat_capacity:      96.8289571
  energy:             63.7177691

- temperature:       630.0000000
  free_energy:       -50.1440817
  entropy:           182.2707861
  heat_capacity:      96.9192381
  energy:             64.6865136

- temperature:       640.0000000
  free_energy:       -51.9744435
  entropy:           183.7977872
  heat_capacity:      97.0054642
  energy:             65.6561404

- temperature:       650.0000000
  free_energy:       -53.8199629
  entropy:           185.3024200
  heat_capacity:      97.0878725
  energy:             66.6266102

- temperature:       660.0000000
  free_energy:       -55.6804194
  entropy:           186.7853110
  heat_capacity:      97.1666834
  energy:             67.5978858

- temperature:       670.0000000
  free_energy:       -57.5555986
  entropy:           188.2470614
  heat_capacity:      97.2421015
  energy:             68.5699325

- temperature:       680.0000000
  free_energy:       -59.4452921
  entropy:           189.6882489
  heat_capacity:      97.3143173
  energy:             69.5427172

- temperature:       690.0000000
  free_energy:       -61.3492969
  entropy:           191.1094285
  heat_capacity:      97.3835081
  energy:             70.5162088

- temperature:       700.0000000
  free_energy:       -63.2674157
  entropy:           192.5111337
  heat_capacity:      97.4498393
  energy:             71.4903778

- temperature:       710.0000000
  free_energy:       -65.1994564
  entropy:           193.8938774
  heat_capacity:      97.5134653
  energy:             72.4651966

- temperature:       720.0000000
  free_energy:       -67.1452317
  entropy:           195.2581532
  heat_capacity:      97.5745301
  energy:             73.4406386

- temperature:       730.0000000
  free_energy:       -69.1045595
  entropy:           196.6044363
  heat_capacity:      97.6331684
  energy:             74.4166791

- temperature:       740.0000000
  free_energy:       -71.0772620
  entropy:           197.9331842
  heat_capacity:      97.6895064
  energy:             75.3932943

- temperature:       750.0000000
  free_energy:       -73.0631662
  entropy:           199.2448375
  heat_capacity:      97.7436619
  energy:             76.3704619

- temperature:       760.0000000
  free_energy:       -75.0621032
  entropy:           200.5398208
  heat_capacity:      97.7957455
  energy:             77.3481606

- temperature:       770.0000000
  free_energy:       -77.0739084
  entropy:           201.8185437
  heat_capacity:      97.8458611
  energy:             78.3263703

- temperature:       780.0000000
  free_energy:       -79.0984212
  entropy:           203.0814010
  heat_capacity:      97.8941058
  energy:             79.3050716

- temperature:       790.0000000
  free_energy:       -81.1354848
  entropy:           204.3287737
  heat_capacity:      97.9405712
  energy:             80.2842465

- temperature:       800.0000000
  free_energy:       -83.1849463
  entropy:           205.5610296
  heat_capacity:      97.9853433
  energy:             81.2638774

- temperature:       810.0000000
  free_energy:       -85.2466562
  entropy:           206.7785236
  heat_capacity:      98.0285027
  energy:             82.2439479

- temperature:       820.0000000
  free_energy:       -87.3204687
  entropy:           207.9815988
  heat_capacity:      98.0701257
  energy:             83.2244423

- temperature:       830.0000000
  free_energy:       -89.4062412
  entropy:           209.1705865
  heat_capacity:      98.1102840
  energy:             84.2053456

- temperature:       840.0000000
  free_energy:       -91.5038345
  entropy:           210.3458070
  heat_capacity:      98.1490451
  energy:             85.1866434

- temperature:       850.0000000
  free_energy:       -93.6131125
  entropy:           211.5075700
  heat_capacity:      98.1864727
  energy:             86.1683220

- temperature:       860.0000000
  free_energy:       -95.7339420
  entropy:           212.6561751
  heat_capacity:      98.2226271
  energy:             87.1503686

- temperature:       870.0000000
  free_energy:       -97.8661931
  entropy:           213.7919122
  heat_capacity:      98.2575651
  energy:             88.1327705

- temperature:       880.0000000
  free_energy:      -100.0097383
  entropy:           214.9150617
  heat_capacity:      98.2913404
  energy:             89.1155160

- temperature:       890.0000000
  free_energy:      -102.1644533
  entropy:           216.0258954
  heat_capacity:      98.3240038
  energy:             90.0985936

- temperature:       900.0000000
  free_energy:      -104.3302161
  entropy:           217.1246762
  heat_capacity:      98.3556033
  energy:             91.0819925

- temperature:       910.0000000
  free_energy:      -106.5069075
  entropy:           218.2116591
  heat_capacity:      98.3861845
  energy:             92.0657023

- temperature:       920.0000000
  free_energy:      -108.6944107
  entropy:           219.2870910
  heat_capacity:      98.4157905
  energy:             93.0497130

- temperature:       930.0000000
  free_energy:      -110.8926116
  entropy:           220.3512114
  heat_capacity:      98.4444620
  energy:             94.0340150

- temperature:       940.0000000
  free_energy:      -113.1013980
  entropy:           221.4042524
  heat_capacity:      98.4722380
  energy:             95.0185992

- temperature:       950.0000000
  free_energy:      -115.3206605
  entropy:           222.4464393
  heat_capacity:      98.4991551
  energy:             96.0034569

- temperature:       960.0000000
  free_energy:      -117.5502914
  entropy:           223.4779906
  heat_capacity:      98.5252482
  energy:             96.9885796

- temperature:       970.0000000
  free_energy:      -119.7901855
  entropy:           224.4991183
  heat_capacity:      98.5505505
  energy:             97.9739592

- temperature:       980.0000000
  free_energy:      -122.0402397
  entropy:           225.5100283
  heat_capacity:      98.5750936
  energy:             98.9595881

- temperature:       990.0000000
  free_energy:      -124.3003527
  entropy:           226.5109206
  heat_capacity:      98.5989074
  energy:             99.9454587

- temperature:      1000.0000000
  free_energy:      -126.5704254
  entropy:           227.5019892
  heat_capacity:      98.6220204
  energy:            100.9315639
