phonopy:
  version: "2.37.1"
  frequency_unit_conversion_factor: 15.633302
  symmetry_tolerance: 1.00000e-05

space_group:
  type: "P-1"
  number: 2
  Hall_symbol: "-P 1"

primitive_matrix:
- [ -0.000000000000000, -1.000000000000000,  0.000000000000000 ]
- [  0.000000000000000, -1.000000000000000,  1.000000000000000 ]
- [ -1.000000000000000,  0.000000000000000,  0.000000000000000 ]

supercell_matrix:
- [   2,   0,   0 ]
- [   0,   2,   0 ]
- [   0,   0,   2 ]

primitive_cell:
  lattice:
  - [     0.000011523181720,    -0.000003234696486,    -5.473285885338588 ] # a
  - [    -1.959018137180778,    -5.324952379666418,     0.000000000000000 ] # b
  - [    -6.257713775680561,     5.324952379666418,     0.000000000000000 ] # c
  points:
  - symbol: Li # 1
    coordinates: [  0.443601070415195,  0.245857891319323,  0.000000101566170 ]
    mass: 6.940000
  - symbol: Li # 2
    coordinates: [  0.556398936220821,  0.754142126974123,  0.999999898287918 ]
    mass: 6.940000
  - symbol: Li # 3
    coordinates: [  0.943601046055547,  0.254142125040167,  0.999999951746012 ]
    mass: 6.940000
  - symbol: Li # 4
    coordinates: [  0.056398974755914,  0.745857855125913,  0.000000050522359 ]
    mass: 6.940000
  - symbol: Li # 5
    coordinates: [  0.248926481263835,  0.239465660152621,  0.674375039298527 ]
    mass: 6.940000
  - symbol: Li # 6
    coordinates: [  0.751073211280898,  0.434909756562972,  0.674375155734079 ]
    mass: 6.940000
  - symbol: Li # 7
    coordinates: [  0.748926505890320,  0.934909757512730,  0.674375138311676 ]
    mass: 6.940000
  - symbol: Li # 8
    coordinates: [  0.251073238425318,  0.739465658333014,  0.674375058788825 ]
    mass: 6.940000
  - symbol: Li # 9
    coordinates: [  0.751073512275055,  0.760534359383873,  0.325624971222279 ]
    mass: 6.940000
  - symbol: Li # 10
    coordinates: [  0.248926770415660,  0.565090237299226,  0.325624841703713 ]
    mass: 6.940000
  - symbol: Li # 11
    coordinates: [  0.251073521199357,  0.065090242090247,  0.325624849214754 ]
    mass: 6.940000
  - symbol: Li # 12
    coordinates: [  0.748926730219196,  0.260534333818088,  0.325624943926344 ]
    mass: 6.940000
  reciprocal_lattice: # without 2pi
  - [    -0.000000000000000,    -0.000000000000000,    -0.182705603352224 ] # a*
  - [    -0.121702887547632,    -0.143021342097829,    -0.000000171701949 ] # b*
  - [    -0.121702887547632,     0.044773764543603,    -0.000000282688327 ] # c*

unit_cell:
  lattice:
  - [     8.216731912861338,     0.000000000000000,     0.000000000000000 ] # a
  - [    -6.257713775680561,     5.324952379666417,     0.000000000000000 ] # b
  - [    -0.000011523181720,     0.000003234696486,     5.473285885338588 ] # c
  points:
  - symbol: Li # 1
    coordinates: [  0.754142108680677,  0.754142210246847,  0.556398929584805 ]
    mass: 6.940000
    reduced_to: 1
  - symbol: Li # 2
    coordinates: [  0.245857873025877,  0.245857771313795,  0.443601063779179 ]
    mass: 6.940000
    reduced_to: 2
  - symbol: Li # 3
    coordinates: [  0.745857874959833,  0.745857826705845,  0.056398953944453 ]
    mass: 6.940000
    reduced_to: 3
  - symbol: Li # 4
    coordinates: [  0.254142144874087,  0.254142195396446,  0.943601025244086 ]
    mass: 6.940000
    reduced_to: 4
  - symbol: Li # 5
    coordinates: [  0.760534339847380,  0.434909379145906,  0.751073518736165 ]
    mass: 6.940000
    reduced_to: 5
  - symbol: Li # 6
    coordinates: [  0.565090243437028,  0.239465399171108,  0.248926788719102 ]
    mass: 6.940000
    reduced_to: 6
  - symbol: Li # 7
    coordinates: [  0.065090242487271,  0.739465380798946,  0.251073494109680 ]
    mass: 6.940000
    reduced_to: 7
  - symbol: Li # 8
    coordinates: [  0.260534341666986,  0.934909400455811,  0.748926761574682 ]
    mass: 6.940000
    reduced_to: 8
  - symbol: Li # 9
    coordinates: [  0.239465640616127,  0.565090611838406,  0.248926487724945 ]
    mass: 6.940000
    reduced_to: 9
  - symbol: Li # 10
    coordinates: [  0.434909762700774,  0.760534604404487,  0.751073229584340 ]
    mass: 6.940000
    reduced_to: 10
  - symbol: Li # 11
    coordinates: [  0.934909757909754,  0.260534607124508,  0.748926478800643 ]
    mass: 6.940000
    reduced_to: 11
  - symbol: Li # 12
    coordinates: [  0.739465666181912,  0.065090610108256,  0.251073269780804 ]
    mass: 6.940000
    reduced_to: 12

supercell:
  lattice:
  - [    16.433463825722676,     0.000000000000000,     0.000000000000000 ] # a
  - [   -12.515427551361121,    10.649904759332834,     0.000000000000000 ] # b
  - [    -0.000023046363439,     0.000006469392972,    10.946571770677176 ] # c
  points:
  - symbol: Li # 1
    coordinates: [  0.377071054340339,  0.377071105123424,  0.278199464792402 ]
    mass: 6.940000
    reduced_to: 1
  - symbol: Li # 2
    coordinates: [  0.877071054340339,  0.377071105123424,  0.278199464792402 ]
    mass: 6.940000
    reduced_to: 1
  - symbol: Li # 3
    coordinates: [  0.377071054340339,  0.877071105123424,  0.278199464792402 ]
    mass: 6.940000
    reduced_to: 1
  - symbol: Li # 4
    coordinates: [  0.877071054340339,  0.877071105123424,  0.278199464792402 ]
    mass: 6.940000
    reduced_to: 1
  - symbol: Li # 5
    coordinates: [  0.377071054340339,  0.377071105123424,  0.778199464792402 ]
    mass: 6.940000
    reduced_to: 1
  - symbol: Li # 6
    coordinates: [  0.877071054340339,  0.377071105123424,  0.778199464792402 ]
    mass: 6.940000
    reduced_to: 1
  - symbol: Li # 7
    coordinates: [  0.377071054340339,  0.877071105123424,  0.778199464792402 ]
    mass: 6.940000
    reduced_to: 1
  - symbol: Li # 8
    coordinates: [  0.877071054340339,  0.877071105123424,  0.778199464792402 ]
    mass: 6.940000
    reduced_to: 1
  - symbol: Li # 9
    coordinates: [  0.122928936512939,  0.122928885656897,  0.221800531889589 ]
    mass: 6.940000
    reduced_to: 9
  - symbol: Li # 10
    coordinates: [  0.622928936512939,  0.122928885656897,  0.221800531889589 ]
    mass: 6.940000
    reduced_to: 9
  - symbol: Li # 11
    coordinates: [  0.122928936512939,  0.622928885656898,  0.221800531889589 ]
    mass: 6.940000
    reduced_to: 9
  - symbol: Li # 12
    coordinates: [  0.622928936512939,  0.622928885656898,  0.221800531889589 ]
    mass: 6.940000
    reduced_to: 9
  - symbol: Li # 13
    coordinates: [  0.122928936512939,  0.122928885656897,  0.721800531889589 ]
    mass: 6.940000
    reduced_to: 9
  - symbol: Li # 14
    coordinates: [  0.622928936512939,  0.122928885656897,  0.721800531889589 ]
    mass: 6.940000
    reduced_to: 9
  - symbol: Li # 15
    coordinates: [  0.122928936512939,  0.622928885656898,  0.721800531889589 ]
    mass: 6.940000
    reduced_to: 9
  - symbol: Li # 16
    coordinates: [  0.622928936512939,  0.622928885656898,  0.721800531889589 ]
    mass: 6.940000
    reduced_to: 9
  - symbol: Li # 17
    coordinates: [  0.372928937479917,  0.372928913352923,  0.028199476972227 ]
    mass: 6.940000
    reduced_to: 17
  - symbol: Li # 18
    coordinates: [  0.872928937479917,  0.372928913352923,  0.028199476972227 ]
    mass: 6.940000
    reduced_to: 17
  - symbol: Li # 19
    coordinates: [  0.372928937479917,  0.872928913352923,  0.028199476972227 ]
    mass: 6.940000
    reduced_to: 17
  - symbol: Li # 20
    coordinates: [  0.872928937479917,  0.872928913352923,  0.028199476972227 ]
    mass: 6.940000
    reduced_to: 17
  - symbol: Li # 21
    coordinates: [  0.372928937479917,  0.372928913352923,  0.528199476972227 ]
    mass: 6.940000
    reduced_to: 17
  - symbol: Li # 22
    coordinates: [  0.872928937479917,  0.372928913352923,  0.528199476972227 ]
    mass: 6.940000
    reduced_to: 17
  - symbol: Li # 23
    coordinates: [  0.372928937479917,  0.872928913352923,  0.528199476972227 ]
    mass: 6.940000
    reduced_to: 17
  - symbol: Li # 24
    coordinates: [  0.872928937479917,  0.872928913352923,  0.528199476972227 ]
    mass: 6.940000
    reduced_to: 17
  - symbol: Li # 25
    coordinates: [  0.127071072437044,  0.127071097698223,  0.471800512622043 ]
    mass: 6.940000
    reduced_to: 25
  - symbol: Li # 26
    coordinates: [  0.627071072437044,  0.127071097698223,  0.471800512622043 ]
    mass: 6.940000
    reduced_to: 25
  - symbol: Li # 27
    coordinates: [  0.127071072437044,  0.627071097698223,  0.471800512622043 ]
    mass: 6.940000
    reduced_to: 25
  - symbol: Li # 28
    coordinates: [  0.627071072437044,  0.627071097698223,  0.471800512622043 ]
    mass: 6.940000
    reduced_to: 25
  - symbol: Li # 29
    coordinates: [  0.127071072437044,  0.127071097698223,  0.971800512622043 ]
    mass: 6.940000
    reduced_to: 25
  - symbol: Li # 30
    coordinates: [  0.627071072437044,  0.127071097698223,  0.971800512622043 ]
    mass: 6.940000
    reduced_to: 25
  - symbol: Li # 31
    coordinates: [  0.127071072437044,  0.627071097698223,  0.971800512622043 ]
    mass: 6.940000
    reduced_to: 25
  - symbol: Li # 32
    coordinates: [  0.627071072437044,  0.627071097698223,  0.971800512622043 ]
    mass: 6.940000
    reduced_to: 25
  - symbol: Li # 33
    coordinates: [  0.380267169923690,  0.217454689572953,  0.375536759368083 ]
    mass: 6.940000
    reduced_to: 33
  - symbol: Li # 34
    coordinates: [  0.880267169923690,  0.217454689572953,  0.375536759368083 ]
    mass: 6.940000
    reduced_to: 33
  - symbol: Li # 35
    coordinates: [  0.380267169923690,  0.717454689572953,  0.375536759368083 ]
    mass: 6.940000
    reduced_to: 33
  - symbol: Li # 36
    coordinates: [  0.880267169923690,  0.717454689572953,  0.375536759368083 ]
    mass: 6.940000
    reduced_to: 33
  - symbol: Li # 37
    coordinates: [  0.380267169923690,  0.217454689572953,  0.875536759368083 ]
    mass: 6.940000
    reduced_to: 33
  - symbol: Li # 38
    coordinates: [  0.880267169923690,  0.217454689572953,  0.875536759368083 ]
    mass: 6.940000
    reduced_to: 33
  - symbol: Li # 39
    coordinates: [  0.380267169923690,  0.717454689572953,  0.875536759368083 ]
    mass: 6.940000
    reduced_to: 33
  - symbol: Li # 40
    coordinates: [  0.880267169923690,  0.717454689572953,  0.875536759368083 ]
    mass: 6.940000
    reduced_to: 33
  - symbol: Li # 41
    coordinates: [  0.282545121718514,  0.119732699585554,  0.124463394359551 ]
    mass: 6.940000
    reduced_to: 41
  - symbol: Li # 42
    coordinates: [  0.782545121718514,  0.119732699585554,  0.124463394359551 ]
    mass: 6.940000
    reduced_to: 41
  - symbol: Li # 43
    coordinates: [  0.282545121718514,  0.619732699585554,  0.124463394359551 ]
    mass: 6.940000
    reduced_to: 41
  - symbol: Li # 44
    coordinates: [  0.782545121718514,  0.619732699585554,  0.124463394359551 ]
    mass: 6.940000
    reduced_to: 41
  - symbol: Li # 45
    coordinates: [  0.282545121718514,  0.119732699585554,  0.624463394359551 ]
    mass: 6.940000
    reduced_to: 41
  - symbol: Li # 46
    coordinates: [  0.782545121718514,  0.119732699585554,  0.624463394359551 ]
    mass: 6.940000
    reduced_to: 41
  - symbol: Li # 47
    coordinates: [  0.282545121718514,  0.619732699585554,  0.624463394359551 ]
    mass: 6.940000
    reduced_to: 41
  - symbol: Li # 48
    coordinates: [  0.782545121718514,  0.619732699585554,  0.624463394359551 ]
    mass: 6.940000
    reduced_to: 41
  - symbol: Li # 49
    coordinates: [  0.032545121243635,  0.369732690399473,  0.125536747054840 ]
    mass: 6.940000
    reduced_to: 49
  - symbol: Li # 50
    coordinates: [  0.532545121243635,  0.369732690399473,  0.125536747054840 ]
    mass: 6.940000
    reduced_to: 49
  - symbol: Li # 51
    coordinates: [  0.032545121243635,  0.869732690399473,  0.125536747054840 ]
    mass: 6.940000
    reduced_to: 49
  - symbol: Li # 52
    coordinates: [  0.532545121243635,  0.869732690399473,  0.125536747054840 ]
    mass: 6.940000
    reduced_to: 49
  - symbol: Li # 53
    coordinates: [  0.032545121243635,  0.369732690399473,  0.625536747054840 ]
    mass: 6.940000
    reduced_to: 49
  - symbol: Li # 54
    coordinates: [  0.532545121243635,  0.369732690399473,  0.625536747054840 ]
    mass: 6.940000
    reduced_to: 49
  - symbol: Li # 55
    coordinates: [  0.032545121243635,  0.869732690399473,  0.625536747054840 ]
    mass: 6.940000
    reduced_to: 49
  - symbol: Li # 56
    coordinates: [  0.532545121243635,  0.869732690399473,  0.625536747054840 ]
    mass: 6.940000
    reduced_to: 49
  - symbol: Li # 57
    coordinates: [  0.130267170833493,  0.467454700227906,  0.374463380787341 ]
    mass: 6.940000
    reduced_to: 57
  - symbol: Li # 58
    coordinates: [  0.630267170833493,  0.467454700227906,  0.374463380787341 ]
    mass: 6.940000
    reduced_to: 57
  - symbol: Li # 59
    coordinates: [  0.130267170833493,  0.967454700227906,  0.374463380787341 ]
    mass: 6.940000
    reduced_to: 57
  - symbol: Li # 60
    coordinates: [  0.630267170833493,  0.967454700227906,  0.374463380787341 ]
    mass: 6.940000
    reduced_to: 57
  - symbol: Li # 61
    coordinates: [  0.130267170833493,  0.467454700227906,  0.874463380787341 ]
    mass: 6.940000
    reduced_to: 57
  - symbol: Li # 62
    coordinates: [  0.630267170833493,  0.467454700227906,  0.874463380787341 ]
    mass: 6.940000
    reduced_to: 57
  - symbol: Li # 63
    coordinates: [  0.130267170833493,  0.967454700227906,  0.874463380787341 ]
    mass: 6.940000
    reduced_to: 57
  - symbol: Li # 64
    coordinates: [  0.630267170833493,  0.967454700227906,  0.874463380787341 ]
    mass: 6.940000
    reduced_to: 57
  - symbol: Li # 65
    coordinates: [  0.119732820308064,  0.282545305919203,  0.124463243862473 ]
    mass: 6.940000
    reduced_to: 65
  - symbol: Li # 66
    coordinates: [  0.619732820308064,  0.282545305919203,  0.124463243862473 ]
    mass: 6.940000
    reduced_to: 65
  - symbol: Li # 67
    coordinates: [  0.119732820308064,  0.782545305919203,  0.124463243862473 ]
    mass: 6.940000
    reduced_to: 65
  - symbol: Li # 68
    coordinates: [  0.619732820308064,  0.782545305919203,  0.124463243862473 ]
    mass: 6.940000
    reduced_to: 65
  - symbol: Li # 69
    coordinates: [  0.119732820308064,  0.282545305919203,  0.624463243862473 ]
    mass: 6.940000
    reduced_to: 65
  - symbol: Li # 70
    coordinates: [  0.619732820308064,  0.282545305919203,  0.624463243862473 ]
    mass: 6.940000
    reduced_to: 65
  - symbol: Li # 71
    coordinates: [  0.119732820308064,  0.782545305919203,  0.624463243862473 ]
    mass: 6.940000
    reduced_to: 65
  - symbol: Li # 72
    coordinates: [  0.619732820308064,  0.782545305919203,  0.624463243862473 ]
    mass: 6.940000
    reduced_to: 65
  - symbol: Li # 73
    coordinates: [  0.217454881350387,  0.380267302202244,  0.375536614792170 ]
    mass: 6.940000
    reduced_to: 73
  - symbol: Li # 74
    coordinates: [  0.717454881350387,  0.380267302202244,  0.375536614792170 ]
    mass: 6.940000
    reduced_to: 73
  - symbol: Li # 75
    coordinates: [  0.217454881350387,  0.880267302202244,  0.375536614792170 ]
    mass: 6.940000
    reduced_to: 73
  - symbol: Li # 76
    coordinates: [  0.717454881350387,  0.880267302202244,  0.375536614792170 ]
    mass: 6.940000
    reduced_to: 73
  - symbol: Li # 77
    coordinates: [  0.217454881350387,  0.380267302202244,  0.875536614792170 ]
    mass: 6.940000
    reduced_to: 73
  - symbol: Li # 78
    coordinates: [  0.717454881350387,  0.380267302202244,  0.875536614792170 ]
    mass: 6.940000
    reduced_to: 73
  - symbol: Li # 79
    coordinates: [  0.217454881350387,  0.880267302202244,  0.875536614792170 ]
    mass: 6.940000
    reduced_to: 73
  - symbol: Li # 80
    coordinates: [  0.717454881350387,  0.880267302202244,  0.875536614792170 ]
    mass: 6.940000
    reduced_to: 73
  - symbol: Li # 81
    coordinates: [  0.467454878954877,  0.130267303562254,  0.374463239400322 ]
    mass: 6.940000
    reduced_to: 81
  - symbol: Li # 82
    coordinates: [  0.967454878954877,  0.130267303562254,  0.374463239400322 ]
    mass: 6.940000
    reduced_to: 81
  - symbol: Li # 83
    coordinates: [  0.467454878954877,  0.630267303562254,  0.374463239400322 ]
    mass: 6.940000
    reduced_to: 81
  - symbol: Li # 84
    coordinates: [  0.967454878954877,  0.630267303562254,  0.374463239400322 ]
    mass: 6.940000
    reduced_to: 81
  - symbol: Li # 85
    coordinates: [  0.467454878954877,  0.130267303562254,  0.874463239400322 ]
    mass: 6.940000
    reduced_to: 81
  - symbol: Li # 86
    coordinates: [  0.967454878954877,  0.130267303562254,  0.874463239400322 ]
    mass: 6.940000
    reduced_to: 81
  - symbol: Li # 87
    coordinates: [  0.467454878954877,  0.630267303562254,  0.874463239400322 ]
    mass: 6.940000
    reduced_to: 81
  - symbol: Li # 88
    coordinates: [  0.967454878954877,  0.630267303562254,  0.874463239400322 ]
    mass: 6.940000
    reduced_to: 81
  - symbol: Li # 89
    coordinates: [  0.369732833090956,  0.032545305054128,  0.125536634890402 ]
    mass: 6.940000
    reduced_to: 89
  - symbol: Li # 90
    coordinates: [  0.869732833090956,  0.032545305054128,  0.125536634890402 ]
    mass: 6.940000
    reduced_to: 89
  - symbol: Li # 91
    coordinates: [  0.369732833090956,  0.532545305054128,  0.125536634890402 ]
    mass: 6.940000
    reduced_to: 89
  - symbol: Li # 92
    coordinates: [  0.869732833090956,  0.532545305054128,  0.125536634890402 ]
    mass: 6.940000
    reduced_to: 89
  - symbol: Li # 93
    coordinates: [  0.369732833090956,  0.032545305054128,  0.625536634890402 ]
    mass: 6.940000
    reduced_to: 89
  - symbol: Li # 94
    coordinates: [  0.869732833090956,  0.032545305054128,  0.625536634890402 ]
    mass: 6.940000
    reduced_to: 89
  - symbol: Li # 95
    coordinates: [  0.369732833090956,  0.532545305054128,  0.625536634890402 ]
    mass: 6.940000
    reduced_to: 89
  - symbol: Li # 96
    coordinates: [  0.869732833090956,  0.532545305054128,  0.625536634890402 ]
    mass: 6.940000
    reduced_to: 89

displacements:
- atom:    1
  displacement:
    [   0.0100000000000000,  0.0000000000000000,  0.0000000000000000 ]
  forces:
  - [  -0.0124131785705686, -0.0000268439762294, -0.0214680302888155 ]
  - [  -0.0002243425697088, -0.0005932492204010, -0.0220057144761086 ]
  - [  -0.0002230457030237, -0.0005920345429331, -0.0220020823180676 ]
  - [  -0.0002365754917264, -0.0005633770488203, -0.0220009200274944 ]
  - [  -0.0002220422029495, -0.0005944436416030, -0.0220123715698719 ]
  - [  -0.0002275942824781, -0.0005952424835414, -0.0220064185559750 ]
  - [  -0.0002226531505585, -0.0005910478066653, -0.0220036115497351 ]
  - [  -0.0002153348177671, -0.0005875476635993, -0.0220074597746134 ]
  - [   0.0006670902948827,  0.0021203225478530,  0.0223393365740776 ]
  - [   0.0002206403296441,  0.0005922010168433,  0.0220040492713451 ]
  - [   0.0002220640890300,  0.0005955076776445,  0.0220030676573515 ]
  - [   0.0005687456578016,  0.0025800568982959,  0.0215509161353111 ]
  - [   0.0001841338817030,  0.0006043827161193,  0.0220120940357447 ]
  - [   0.0002152589149773,  0.0005963407456875,  0.0220029614865780 ]
  - [   0.0002147643826902,  0.0005967882461846,  0.0220041126012802 ]
  - [   0.0001999437808990,  0.0006036930717528,  0.0219895634800196 ]
  - [  -0.0005598962306976,  0.0006051729433239, -0.0219213943928480 ]
  - [   0.0002136761322618,  0.0005957260727882, -0.0220006406307220 ]
  - [   0.0002164905890822,  0.0005999375134706, -0.0220047757029533 ]
  - [   0.0002108924090862,  0.0005913400091231, -0.0219994876533747 ]
  - [  -0.0005615651607513,  0.0006037056446075, -0.0221102237701416 ]
  - [   0.0002133846282959,  0.0005967710167170, -0.0220019519329071 ]
  - [   0.0002158768475056,  0.0005992297083139, -0.0220042578876019 ]
  - [   0.0002104658633471,  0.0005917479284108, -0.0220047980546951 ]
  - [   0.0000601154752076, -0.0005240878090262,  0.0219505056738853 ]
  - [  -0.0002151622902602, -0.0005954150110483,  0.0220066681504250 ]
  - [  -0.0002159308642149, -0.0006010765209794,  0.0220017042011023 ]
  - [   0.0000599040649831, -0.0005257203592919,  0.0220390819013119 ]
  - [  -0.0001607759622857, -0.0006886530900374,  0.0218542423099279 ]
  - [  -0.0002239114837721, -0.0005926951998845,  0.0220039896667004 ]
  - [  -0.0002241954207420, -0.0005963427247480,  0.0220022071152925 ]
  - [  -0.0001600719988346, -0.0006876949337311,  0.0221415683627129 ]
  - [  -0.0237911529839039,  0.0037198727950454,  0.0003447998315096 ]
  - [  -0.0266707148402929,  0.0064850142225623, -0.0014209421351552 ]
  - [  -0.0266865659505129,  0.0064784330315888, -0.0014166785404086 ]
  - [  -0.0266924798488617,  0.0064506111666560, -0.0014405567198992 ]
  - [  -0.0266884341835976,  0.0064971968531609, -0.0013618730008602 ]
  - [  -0.0266663134098053,  0.0064776227809489, -0.0014082044363022 ]
  - [  -0.0266550816595554,  0.0064695053733885, -0.0014097876846790 ]
  - [  -0.0266589056700468,  0.0064879134297371, -0.0014016926288605 ]
  - [  -0.0242259670048952,  0.0124108260497451,  0.0014252638211474 ]
  - [  -0.0245012771338224,  0.0123475408181548,  0.0014244893100113 ]
  - [  -0.0245104040950537,  0.0123606845736504,  0.0014026905409992 ]
  - [  -0.0248630121350288,  0.0120660793036222,  0.0015729158185422 ]
  - [  -0.0245593823492527,  0.0124562280252576,  0.0012653488665819 ]
  - [  -0.0245098266750574,  0.0123448772355914,  0.0014124028384686 ]
  - [  -0.0245141964405775,  0.0123521471396089,  0.0014158012345433 ]
  - [  -0.0245059300214052,  0.0123456157743931,  0.0014398479834199 ]
  - [  -0.0245397873222828,  0.0123647330328822, -0.0014043475966901 ]
  - [  -0.0224853418767452,  0.0123160816729069, -0.0026942098047584 ]
  - [  -0.0244977213442326,  0.0123378727585077, -0.0014230506494641 ]
  - [  -0.0245165303349495,  0.0123357549309731, -0.0014127056347206 ]
  - [  -0.0244896300137043,  0.0123393982648849, -0.0014210138469934 ]
  - [  -0.0247167032212019,  0.0123405363410711, -0.0018282912205905 ]
  - [  -0.0245123505592346,  0.0123396208509803, -0.0014133343938738 ]
  - [  -0.0245075747370720,  0.0123365567997098, -0.0014183713356033 ]
  - [  -0.0266406964510679,  0.0064477357082069,  0.0014343067305163 ]
  - [  -0.0254453010857105,  0.0068061472848058,  0.0017850683070719 ]
  - [  -0.0266241654753685,  0.0066640544682741,  0.0013874424621463 ]
  - [  -0.0266637839376926,  0.0064756334759295,  0.0014170091599226 ]
  - [  -0.0266503207385540,  0.0064776069484651,  0.0014217103598639 ]
  - [  -0.0266708806157112,  0.0064730150625110,  0.0014542965218425 ]
  - [  -0.0266708582639694,  0.0064853308722377,  0.0014083711430430 ]
  - [  -0.0266703926026821,  0.0064768600277603,  0.0014186240732670 ]
  - [   0.0269066058099270, -0.0065818866714835,  0.0014030358288437 ]
  - [   0.0266680382192135, -0.0065067149698734,  0.0014258762821555 ]
  - [   0.0266727339476347, -0.0064797671511769,  0.0014155169483274 ]
  - [   0.0266897603869438, -0.0063191023655236,  0.0013808226212859 ]
  - [   0.0264993757009506, -0.0065553090535104,  0.0016552470624447 ]
  - [   0.0266630593687296, -0.0064827399328351,  0.0014255482237786 ]
  - [   0.0266674831509590, -0.0064809471368790,  0.0014151774812490 ]
  - [   0.0266686752438545, -0.0064761042594910,  0.0013979636132717 ]
  - [   0.0296004991978407, -0.0122984834015369, -0.0036380921956152 ]
  - [   0.0245013479143381, -0.0123333260416985, -0.0014066142030060 ]
  - [   0.0245134588330984, -0.0123483221977949, -0.0014174100942910 ]
  - [   0.0245193112641573, -0.0123362569138408, -0.0014069834724069 ]
  - [   0.0244752354919910, -0.0123563949018717, -0.0014802748337388 ]
  - [   0.0245396159589291, -0.0123502835631371, -0.0014327368699014 ]
  - [   0.0245162770152092, -0.0123442970216274, -0.0014211649540812 ]
  - [   0.0245158355683088, -0.0123420432209969, -0.0014314756263047 ]
  - [   0.0245344415307045, -0.0123473098501563,  0.0014025699347258 ]
  - [   0.0240394379943609, -0.0127272196114063,  0.0015690214931965 ]
  - [   0.0250664111226797, -0.0128519581630826,  0.0012000119313598 ]
  - [   0.0245369542390108, -0.0123381270095706,  0.0014222664758563 ]
  - [   0.0245324373245239, -0.0123577397316694,  0.0014137204270810 ]
  - [   0.0245237424969673, -0.0123416315764189,  0.0014286898076534 ]
  - [   0.0245020315051079, -0.0123395388945937,  0.0013840161263943 ]
  - [   0.0245181918144226, -0.0123430173844099,  0.0014101061969995 ]
  - [   0.0266506187617779, -0.0064929607324302, -0.0014228620566428 ]
  - [   0.0266671702265739, -0.0064832307398319, -0.0014140754938126 ]
  - [   0.0279298312962055, -0.0074313818477094, -0.0004265611059964 ]
  - [   0.0266820527613163, -0.0064646666869521, -0.0014286227524281 ]
  - [   0.0266818776726723, -0.0064921663142741, -0.0014159857528284 ]
  - [   0.0266774594783783, -0.0064696157351136, -0.0014235463459045 ]
  - [   0.0265663340687752, -0.0063336072489619, -0.0010798400035128 ]
  - [   0.0266881808638573, -0.0064784036949277, -0.0014106115559116 ]
- atom:    1
  displacement:
    [  -0.0100000000000000,  0.0000000000000000,  0.0000000000000000 ]
  forces:
  - [   0.0119634345173836, -0.0011843221727759, -0.0225065313279629 ]
  - [  -0.0002159494906664, -0.0005977030377835, -0.0220015458762646 ]
  - [  -0.0002166517078876, -0.0005986383184791, -0.0220053084194660 ]
  - [  -0.0002030697651207, -0.0006276438944042, -0.0220072977244854 ]
  - [  -0.0002183355391026, -0.0005951279308647, -0.0219968445599079 ]
  - [  -0.0002134791575372, -0.0005939500406384, -0.0220036283135414 ]
  - [  -0.0002160985022783, -0.0005984106101096, -0.0220061987638474 ]
  - [  -0.0002241632901132, -0.0006022108718753, -0.0220022015273571 ]
  - [  -0.0002167189959437, -0.0009277686476707,  0.0216694418340921 ]
  - [   0.0002201145980507,  0.0005978429690003,  0.0220034159719944 ]
  - [   0.0002170293591917,  0.0005958643741906,  0.0220045018941164 ]
  - [  -0.0001433100551367, -0.0013875872828066,  0.0224563889205456 ]
  - [   0.0002558729611337,  0.0005845150444657,  0.0219965279102325 ]
  - [   0.0002245903015137,  0.0005930773913860,  0.0220038704574108 ]
  - [   0.0002242177724838,  0.0005934652872384,  0.0220028050243855 ]
  - [   0.0002398937940598,  0.0005869800224900,  0.0220179669559002 ]
  - [   0.0010007396340370,  0.0005872594192624, -0.0220477040857077 ]
  - [   0.0002255057916045,  0.0005957074463367, -0.0220053978264332 ]
  - [   0.0002228040248156,  0.0005909763276577, -0.0220011137425900 ]
  - [   0.0002285139635205,  0.0005995952524245, -0.0220066942274570 ]
  - [   0.0009990865364671,  0.0005859867669642, -0.0219366252422333 ]
  - [   0.0002253195270896,  0.0005940757691860, -0.0220042951405048 ]
  - [   0.0002224287018180,  0.0005928110331297, -0.0220021381974220 ]
  - [   0.0002280706539750,  0.0005998397246003, -0.0220016762614250 ]
  - [  -0.0004978652577847, -0.0006634937599301,  0.0220563188195229 ]
  - [  -0.0002239644527435, -0.0005959020927548,  0.0220019929111004 ]
  - [  -0.0002247421070933, -0.0005892040207982,  0.0220067184418440 ]
  - [  -0.0004981709644198, -0.0006651876028627,  0.0219697989523411 ]
  - [  -0.0002795553009491, -0.0005033380584791,  0.0221503172069788 ]
  - [  -0.0002157248673029, -0.0005985930329189,  0.0220026895403862 ]
  - [  -0.0002160454168916, -0.0005944754229859,  0.0220041796565056 ]
  - [  -0.0002787625999190, -0.0005024929996580,  0.0218633525073528 ]
  - [  -0.0295148696750402,  0.0091878762468696, -0.0031434092670679 ]
  - [  -0.0266670789569616,  0.0064738327637315, -0.0014095557853580 ]
  - [  -0.0266518890857697,  0.0064794798381627, -0.0014139292761683 ]
  - [  -0.0266478173434734,  0.0065077720209956, -0.0013898853212595 ]
  - [  -0.0266481898725033,  0.0064604040235281, -0.0014665517956018 ]
  - [  -0.0266709402203560,  0.0064792521297932, -0.0014208117499948 ]
  - [  -0.0266833622008562,  0.0064893099479377, -0.0014195386320353 ]
  - [  -0.0266798455268145,  0.0064721982926130, -0.0014280118048191 ]
  - [  -0.0247990246862173,  0.0122743444517255,  0.0014105591690168 ]
  - [  -0.0245254226028919,  0.0123411379754543,  0.0014128874754533 ]
  - [  -0.0245156548917294,  0.0123285930603743,  0.0014347034739330 ]
  - [  -0.0241313930600882,  0.0126446029171348,  0.0012509131338447 ]
  - [  -0.0244711618870497,  0.0122374398633838,  0.0015633436851203 ]
  - [  -0.0245168972760439,  0.0123431943356991,  0.0014239752199501 ]
  - [  -0.0245132241398096,  0.0123364897444844,  0.0014202112797648 ]
  - [  -0.0245216954499483,  0.0123435240238905,  0.0013964911922812 ]
  - [  -0.0244871173053980,  0.0123234596103430, -0.0014259491581470 ]
  - [  -0.0265083275735378,  0.0123726287856698, -0.0001681894063950 ]
  - [  -0.0245300084352493,  0.0123496241867542, -0.0014084915164858 ]
  - [  -0.0245105363428593,  0.0123534761369228, -0.0014183553867042 ]
  - [  -0.0245375446975231,  0.0123496958985925, -0.0014105844311416 ]
  - [  -0.0243149939924479,  0.0123489573597908, -0.0010167465079576 ]
  - [  -0.0245151203125715,  0.0123500972986221, -0.0014166606124490 ]
  - [  -0.0245185997337103,  0.0123538374900818, -0.0014120350824669 ]
  - [  -0.0266984459012747,  0.0065101627260447,  0.0014023842522874 ]
  - [  -0.0278683155775070,  0.0061646713875234,  0.0010641366243362 ]
  - [  -0.0267140455543995,  0.0062958011403680,  0.0014484743587673 ]
  - [  -0.0266748759895563,  0.0064845597371459,  0.0014187637716532 ]
  - [  -0.0266882423311472,  0.0064812209457159,  0.0014133240329102 ]
  - [  -0.0266682505607605,  0.0064851962961257,  0.0013816687278450 ]
  - [  -0.0266684647649527,  0.0064750602468848,  0.0014266804791987 ]
  - [  -0.0266680754721165,  0.0064833238720894,  0.0014163944870234 ]
  - [   0.0264105983078480, -0.0063840262591839,  0.0014168433845043 ]
  - [   0.0266704056411982, -0.0064526740461588,  0.0014044702984393 ]
  - [   0.0266657751053572, -0.0064792390912771,  0.0014145495370030 ]
  - [   0.0266465377062559, -0.0066351308487356,  0.0014474124182016 ]
  - [   0.0268621556460857, -0.0063961660489440,  0.0011469956953079 ]
  - [   0.0266761407256126, -0.0064765326678753,  0.0014047503937036 ]
  - [   0.0266719777137041, -0.0064774695783854,  0.0014151507057250 ]