8
Lattice="3.357409018284338 0.0015345854039131158 -0.624191951099013 -0.2066688318864604 4.3973220382822245 -1.1005952686412594 0.021022715240177427 0.026024855508397365 9.454491542253638" Properties=species:S:1:pos:R:3:forces:R:3 structure_index=0 total_energy=-22.72091293334961 stress="0.04292843118309975 -0.0013091973960399628 -0.0062210955657064915 -0.0013091771397739649 0.031370677053928375 -0.005362384021282196 -0.006220863666385412 -0.005362651310861111 0.01205937284976244" pbc="T T T"
Li       0.21691700       3.00834838       6.13984725      -0.00036260       0.00004591       0.00079046
Li       0.68731218       1.32121618       8.66847345      -0.00210835       0.00040668      -0.01176391
Li       3.30989237       0.29927212       4.08821987       0.00231611       0.00096291       0.01182306
Li       1.02338623       4.13576529       1.14143680       0.00688275       0.00969611       0.03762327
Li       2.74599284       1.85491663       1.06012938      -0.00647699      -0.00848972      -0.03638180
Ga       1.99872339       0.81060103       6.37854250      -0.00008830      -0.00018746      -0.00087268
Sn       2.32403781       3.60744160       8.13667627      -0.00167138      -0.00702045      -0.01163470
Sn       1.46660770       2.41083742       3.51960136       0.00150879       0.00458603       0.01041634
10
Lattice="4.71024006635464 -0.0009366436952968273 -0.0011256258127415792 -2.355184116184617 4.079062993891532 0.0004005717854754591 0.0025770366138823907 0.0005588934733530746 11.19230201101319" Properties=species:S:1:pos:R:3:forces:R:3 structure_index=1 total_energy=-30.0966796875 stress="0.0011133969528600574 5.346539546735585e-05 0.00012471694208215922 5.343546945368871e-05 0.0013157837092876434 -0.0001405898219672963 0.00012470271030906588 -0.0001406916562700644 -0.006761727388948202" pbc="T T T"
Li       2.73758449       0.73125539       8.69297622      -0.00033228      -0.00000341       0.00201009
Li      -1.97318142       3.45176685       9.88490372       0.00006621      -0.00009286       0.04123618
Li       2.73725181       0.73051731       5.78104569       0.00014242       0.00010976       0.02695380
Li       0.38242797       2.09074327       7.50479525      -0.00005350       0.00018329      -0.04117638
Li       2.73488483       0.73123944       0.41583652      -0.00000214       0.00002737      -0.02862445
Ga       2.73641191       0.73068557       3.09846793      -0.00022587       0.00029967       0.00000501
Sn       0.38120579       2.09055233       2.04346119      -0.00052372       0.00025784      -0.04518021
Sn      -1.97257793       3.45060995       7.11120016      -0.00018572       0.00000880      -0.00272719
Sn      -1.97398996       3.45100297       4.15471177       0.00054149      -0.00048917       0.04317974
Sn       0.38176841       2.09194765      10.27858026       0.00057310      -0.00030130       0.00432343
6
Lattice="4.560558527265286 -0.0015087094967501599 0.0013818434463979286 -2.2788446137929785 3.950351990161468 -0.0012864005890236589 -0.0026404605466173498 0.0010754439737160706 7.46511482337488" Properties=species:S:1:pos:R:3:forces:R:3 structure_index=2 total_energy=-18.6628360748291 stress="-0.04152616485953331 0.00024239886261057109 -0.000422890909248963 0.00024247029796242714 -0.04082381725311279 -1.5922024658721057e-06 -0.00042286652023904026 -1.5768748653499642e-06 -0.03249065950512886" pbc="T T T"
Li       1.84114767       1.87874527       6.84606647       0.00021841       0.00041564      -0.03388592
Li       1.84291648       1.87849967       3.11210458       0.00035989      -0.00019204      -0.03314802
Ga       4.12138082       0.56165281       6.03035926      -0.00027151      -0.00074350       0.02312208
Ga      -0.43638866       3.19551882       2.29707206      -0.00109148       0.00019666       0.01774450
Sn       4.12332437       0.56081336       1.38851783       0.00037081       0.00010561       0.01501653
Sn      -0.43796157       3.19600166       5.11994385       0.00041389       0.00021762       0.01115081
12
Lattice="4.329836019167869 6.755579547552666e-05 0.00028604255764644413 -2.163633188362187 6.2706730199570035 0.0023678359680330287 -0.0005902358915616716 0.001190773200242258 8.739892064594084" Properties=species:S:1:pos:R:3:forces:R:3 structure_index=3 total_energy=-35.51596450805664 stress="-0.019443627446889877 1.2439981219358742e-05 -1.1570970855245832e-05 1.2113944649172481e-05 -0.0195392407476902 9.634311572881415e-05 -1.152648292190861e-05 9.650613355915993e-05 -0.02031840570271015" pbc="T T T"
Li       3.18671980       0.04357553       3.50977660      -0.00115968      -0.02316090      -0.00531002
Li       3.18638216       0.04263203       7.87595541      -0.00100012      -0.02383249       0.00349429
Ga       3.18506919       1.97068327       1.32585218      -0.00013313       0.00457057      -0.00338915
Ga       1.01991031       0.15485461       5.69159957      -0.00056110       0.03930344      -0.00151603
Ga       3.18420113       1.97684957       5.68908514       0.00123444       0.00285724       0.00383651
Ga       1.02202054       4.20631836       5.69520188       0.00006482      -0.02670813      -0.00574664
Ga       1.02130196       2.00962302       7.87769643       0.00005304       0.01637056       0.00081619
Ga       1.02003337       0.14101060       1.31924417       0.00051769       0.04729659       0.00245757
Ga       1.02128715       2.01440038       3.50287729       0.00081825       0.01031134       0.00080727
Ga       1.02193960       4.18139363       1.32208779       0.00091575      -0.01098213       0.00475421
Sn      -1.14274829       4.14959867       7.87457305      -0.00009993      -0.01530057       0.00431632
Sn      -1.14238865       4.15660006       3.51202859      -0.00065004      -0.02072550      -0.00452051
9
Lattice="4.079958941472599 -0.001363421529141678 -9.442103335696492e-05 -2.0386859592124917 4.68249614629856 -1.1712486942048579 -0.00037751151566009034 -1.0026649816315187 8.958731402448473" Properties=species:S:1:pos:R:3:forces:R:3 structure_index=4 total_energy=-26.422008514404297 stress="-0.009493011981248856 -0.001365878852084279 -0.0010650476906448603 -0.001365784788504243 0.025142362341284752 0.012146011926233768 -0.0010650603799149394 0.012145799584686756 -0.0072715706191957" pbc="T T T"
Li      -0.51613684       4.01199376       3.67278988       0.00000889      -0.00470356      -0.02029987
Li      -0.51704438       0.63961388       6.35519002      -0.00008678       0.00015624      -0.00205983
Li      -0.51682033       1.35241471       0.51631404      -0.00006056      -0.00877789      -0.00139572
Li       1.52353931       2.75441191       2.09675221      -0.00005667       0.01029827       0.01588487
Ga       1.52341528       2.48952438       5.10230225       0.00002419      -0.00500952      -0.01309405
Ga      -0.51599358       4.38954684       0.66516495      -0.00003253       0.01237104       0.00725209
Ga      -0.51622143       3.71590433       6.55955850       0.00004517       0.00061266       0.01742490
Sn       1.52323064       2.00146051       8.05375107       0.00002294      -0.00961649      -0.00551777
Sn      -0.51696799       1.05729360       3.47353353       0.00013534       0.00466923       0.00180538
4
Lattice="4.061766031567643 0.0005520172600740081 0.00016515302704590382 -0.0005690692579469535 4.061759706880138 -8.5896542823136e-05 -0.0001434434966283087 7.45735395038265e-05 4.434964133684442" Properties=species:S:1:pos:R:3:forces:R:3 structure_index=5 total_energy=-11.800235748291016 stress="0.09072493016719818 -0.0001574315392645076 0.00011766704847104847 -0.0001574275956954807 0.09068535268306732 -6.147702515590936e-05 0.00011751754209399223 -6.158192991279066e-05 -0.017148833721876144" pbc="T T T"
Li       1.79021758       2.92079079       1.04222498      -0.00010567      -0.00038523       0.00018499
Li       3.82089974       0.88994584       1.04232685       0.00075836       0.00026574       0.00022939
Ga       1.79014217       0.88970823       3.25972109       0.00210628       0.00025644       0.00004763
Sn       3.82144417       2.92090711       3.25992872      -0.00275896      -0.00013695      -0.00046201
14
Lattice="4.266771238139861 -0.015147846658328077 -0.0027272452692253387 -2.115475866341635 4.759922758661 -0.2704227979075243 0.00766150908199588 0.4339700498415752 11.296077379421325" Properties=species:S:1:pos:R:3:forces:R:3 structure_index=6 total_energy=-36.77082824707031 stress="0.016278427094221115 0.0036379187367856503 -0.00017617252888157964 0.0036378512158989906 -0.028020989149808884 0.01248991396278143 -0.0001758728758431971 0.01249020081013441 0.02075636386871338" pbc="T T T"
Li       1.86919383       2.10125903       1.89876518      -0.00120370      -0.00003250       0.02598668
Li      -0.26639268       1.47010109       5.89405531       0.00173789       0.03363013       0.01111481
Li      -0.25698531       2.98095935       9.04904267      -0.00057146      -0.01786768      -0.02704499
Li       1.87452190       3.63792056       5.09224642       0.00101371       0.01047697       0.02844714
Li      -0.26835078       1.18770728       0.21238370      -0.00086108      -0.02147124      -0.00852483
Li       1.88017592       3.69294822      10.46900070      -0.00109676      -0.02832215      -0.01127792
Li       1.87210132       2.25469598       7.49261247      -0.00047092       0.01685714      -0.01973120
Li      -0.26178336       2.91732702       3.53920302       0.00071119       0.03466023       0.00115643
Li      -0.25470815       4.42140102       6.71068179       0.00080408      -0.00273655       0.00497209
Ga       1.88226973       5.02092174       8.10070918       0.00140883      -0.01233744      -0.03476667
Ga       3.99457265       0.19316787       3.00996200       0.00103540       0.01215681       0.00388756
Ga       1.86444612       0.89695525       4.52019523      -0.00077838      -0.00158460       0.00571171
Ga       1.86896689       1.00798355       9.80936331      -0.00165380      -0.03729828       0.01029579
Sn      -0.25762978       3.99731497       0.86747954      -0.00007497       0.01386919       0.00977340
6
Lattice="3.1667150675303035 0.006942296692578321 -0.0019462052216709586 -0.00565894176096922 3.166789033362725 -0.0055408860703558506 0.020050948287416073 0.015111272397102747 12.4267421807908" Properties=species:S:1:pos:R:3:forces:R:3 structure_index=7 total_energy=-18.20504379272461 stress="0.037200331687927246 0.0073390137404203415 0.0015593385323882103 0.0073390076868236065 0.038327790796756744 0.0019224166171625257 0.0015593552961945534 0.0019223735434934497 0.04611455649137497" pbc="T T T"
Li       0.32531205       0.56464846       7.21039286       0.00012906      -0.00048606      -0.00705860
Li       0.32818148       0.56942469      10.28834761      -0.00062437       0.00008934      -0.03147745
Ga       1.91152542       2.15909588      12.23592735      -0.00013628       0.00081474       0.02623685
Ga       1.90678007       2.15380884       8.66761918       0.00107276       0.00001049      -0.00267679
Sn       1.90452487       2.14784260       5.11703065       0.00117332      -0.00088232       0.02969251
Sn       0.31396302       0.56216286       2.03921982      -0.00161449       0.00045381      -0.01471651
12
Lattice="3.930940534519316 -0.006270991065808366 0.9462281542791388 1.6272315352076023 5.932194158951013 1.9164247840479969 -0.10909810212331189 -0.11402515705224196 9.08956953180548" Properties=species:S:1:pos:R:3:forces:R:3 structure_index=8 total_energy=-33.95941925048828 stress="-0.016146216541528702 0.003205428132787347 -0.012360657565295696 0.003205168293789029 0.0004118292417842895 -0.010165952146053314 -0.012360770255327225 -0.0101661067456007 0.027532637119293213" pbc="T T T"
Li       2.98350886       2.31400616       7.36852173      -0.00072383      -0.00432991       0.00259365
Li       1.13726170       0.31237337       6.38672329      -0.00060568      -0.00416310       0.00352768
Li       2.11949718       1.29386085       2.31644242      -0.00013353       0.01760989       0.00434495
Li       4.83639557       4.26632113       8.32219162       0.00162495       0.00612445      -0.00670082
Ga       1.48359754       2.78843349       4.96734825       0.00049123      -0.01123162      -0.00332421
Ga       3.57869197       0.77008495       4.88881392      -0.00177035       0.00358263       0.00575104
Ga       3.34970768       4.83268238       5.86567773      -0.00251135      -0.00248915       0.01176526
Ga       2.40929643       3.77801389       9.76324379       0.00116983      -0.00546177      -0.00456570
Ga       1.88338851       5.43130346       3.32718101      -0.00374516       0.02864252       0.00382808
Ga       4.24409235       5.78622154      10.78875845       0.00347079       0.00697047      -0.00932837
Ga       0.54822440       1.73493219       8.84069076       0.00054233       0.00546657      -0.00060029
Sn       3.96710413       3.34756366       3.29346385       0.00219075      -0.04072100      -0.00729123
20
Lattice="5.793414915434013 0.056565334054653964 -0.131217403822539 -0.9362915671425875 5.762202448004176 -1.2856216747350142 0.044739323806845185 0.05119311416146869 12.176153374126066" Properties=species:S:1:pos:R:3:forces:R:3 structure_index=9 total_energy=-60.06010437011719 stress="0.003990522585809231 0.0004773086402565241 -0.0008655062993057072 0.0004773598921019584 0.006896207574754953 0.0004525563563220203 -0.0008654886623844504 0.00045241572661325336 0.004888478200882673" pbc="T T T"
Li       4.50297874       0.28480904       2.48196775      -0.01369789       0.00516556      -0.00484735
Li       2.20863913       3.64501115       4.20085427       0.00015069       0.03128399      -0.00169080
Li       4.41334759       3.20869428       6.57207517      -0.01886737       0.01065661      -0.00238507
Li      -0.06237257       4.99109444      -0.84429329      -0.00756712      -0.04205018       0.02297779
Li       0.60582622       0.37259502       7.57125534       0.02778108      -0.02160811       0.01145674
Ga       2.67858252       5.34123383       6.46868198       0.01600838       0.04348550      -0.00380279
Ga       1.13177417       5.25820410       8.70784949      -0.01446491       0.02773726       0.00222611
Ga       1.49339918       2.96382564       6.80164034      -0.02221857       0.04122430      -0.00372410
Ga       1.08427992       4.34765573       1.64958255      -0.00563172      -0.01284364       0.00511879
Ga       0.10775495       1.64130324       4.79973728       0.01056846      -0.00817699       0.01182626
Ga       1.61183823       1.23605906       2.55793041      -0.00158607       0.01400136      -0.01224904
Ga       2.84894527       1.21820019      -0.24069960       0.00372513      -0.02192889       0.02595947
Ga       3.52162607       3.09245852       1.79012377       0.02036980       0.02054029      -0.01117765
Ga       2.82504085       1.99586274       8.94855779       0.00374460       0.03251871      -0.02970083
Ga       4.17108054       5.56778618       8.75181594      -0.00545023      -0.04602104       0.01183346
Sn       3.10359016       0.85052618       5.22424522      -0.00992534       0.02121785      -0.01415711
Sn       2.85981321       4.13071085      11.06171672      -0.00188683      -0.02785819       0.01173044
Sn      -0.15076691       2.68478858       9.40309101       0.01183027      -0.02047860      -0.02111539
Sn      -0.08831828       2.02693859       0.26942057      -0.00284548      -0.03554632      -0.01580040
Sn       5.06137206       4.48000239       3.77197549       0.00996313      -0.01131951       0.01752146
11
Lattice="4.765247819624802 0.0052530550731291 -0.0015662694937986228 -2.3877352526681723 4.123454898568169 0.0008210360246095071 0.006283992410947266 -0.001932886307696025 12.434212621940771" Properties=species:S:1:pos:R:3:forces:R:3 structure_index=10 total_energy=-34.12541198730469 stress="0.0017275408608838916 -3.747159644262865e-05 2.2963549781707115e-05 -3.7439858715515584e-05 0.00165221665520221 -3.292452311143279e-05 2.291930104547646e-05 -3.295320857432671e-05 0.000401453988160938" pbc="T T T"
Li       2.00385926       1.09426795       5.79322415      -0.00017386       0.00017185      -0.03518088
Li       2.00182953       1.09548788       2.54134168      -0.00005724       0.00000756      -0.00043913
Li       2.00475981       1.09530426      11.72247531       0.00015496      -0.00016095       0.03532173
Ga       2.00073015       3.84526870       6.98847832      -0.00000663      -0.00011018      -0.01411873
Ga       1.99967595       3.84523588       4.36521458       0.00002519       0.00007926      -0.01213162
Ga      -0.38389557       2.46923116       0.71687896      -0.00016669      -0.00002756       0.01306732
Ga      -0.38028352       2.46794640      10.52780178       0.00016776       0.00007048       0.01434448
Sn       1.99746733       3.84691935       1.31750747       0.00004229      -0.00016112      -0.05242186
Sn      -0.38012818       2.46745743       7.67960975      -0.00040082       0.00024296      -0.00046547
Sn      -0.38163422       2.46753229       3.76532815      -0.00016318       0.00022164       0.05158887
Sn       2.00056711       3.84576504       9.83666572       0.00057822      -0.00033398       0.00043528
8
Lattice="5.625228433868526 0.023349252830128637 -1.9653171125724336 -2.8659573475307107 4.864889284364304 -2.0319111807399954 0.011900125529119163 -0.00022785468857314836 5.963618644274069" Properties=species:S:1:pos:R:3:forces:R:3 structure_index=11 total_energy=-24.810688018798828 stress="0.026895951479673386 0.0054475306533277035 -0.0028640469536185265 0.0054474323987960815 0.027053991332650185 -0.00023444893304258585 -0.00286398408934474 -0.00023446351406164467 0.0323246493935585" pbc="T T T"
Li       4.91303431       0.80132618       1.45812041       0.01184714      -0.01424273      -0.00085436
Li       1.87879095       0.78681792      -0.22710293       0.00655246      -0.01277049       0.01054679
Li       3.14928919       3.05362943      -2.53740113       0.00121153      -0.01136759       0.00016147
Ga       0.84576273       2.56199926       1.78385257      -0.02317670       0.03236254      -0.01418411
Ga       2.17961233       0.29219483       2.73032769       0.02329055      -0.03377159       0.02063808
Sn       3.52194794       3.24429449       0.42177663      -0.03951088       0.00201320       0.01544770
Sn       4.55234421       0.59099070      -1.54503986       0.01298963       0.04444702       0.00864570
Sn       0.43760068       3.22828089      -1.20073827       0.00679627      -0.00667037      -0.04040130
8
Lattice="4.098704958458456 -0.027006962293570816 -1.0324777414563528 -0.22848506530551482 3.9633892140459106 -1.009292016757104 -0.06060965033508433 0.018009608425868618 8.401605435712252" Properties=species:S:1:pos:R:3:forces:R:3 structure_index=12 total_energy=-22.66234016418457 stress="-0.04257716238498688 -2.763972361208289e-06 0.015992173925042152 -2.748093720583711e-06 -0.019184179604053497 -0.004988926462829113 0.015992268919944763 -0.004988856613636017 -0.02738904021680355" pbc="T T T"
Li       3.43845224       2.21832304       1.09642564       0.00052266      -0.00521449      -0.00623485
Li      -0.04909219       0.78762545       4.58329718      -0.00628766      -0.00500158      -0.01566521
Li       2.86056493       3.70583475      -1.23504676       0.00186019       0.00178044      -0.00170295
Li       2.46403911       1.26580699       5.90043938       0.00770579       0.00480899       0.01128191
Ga       0.28368764       3.24039739       5.83318617      -0.00778641       0.00007890      -0.00096579
Ga       0.88857036       1.69837240      -0.36209656      -0.00210549       0.00004317      -0.00121560
Ga       1.91946738       2.79184370       3.69599940       0.00182140      -0.00423528      -0.00811069
Sn       1.52785445       0.27403564       2.21024618       0.00426953       0.00773985       0.02261318
6
Lattice="4.465214143319896 0.003739167302187824 -0.010385453206151989 -2.237352584674017 3.669526120661984 -1.2830256607655461 0.01283550225908864 -0.05876934732880957 7.672963517566906" Properties=species:S:1:pos:R:3:forces:R:3 structure_index=13 total_energy=-17.955835342407227 stress="-0.03916441276669502 -0.0002980165008921176 0.00026599213015288115 -0.0002980153076350689 -0.03696930781006813 -0.0018150015966966748 0.00026594812516123056 -0.0018151872791349888 -0.0408964641392231" pbc="T T T"
Li       2.25172649       2.96880052       4.14243782      -0.00111798      -0.01223456      -0.02999053
Li       0.01593097       1.25770837       3.15187428       0.00383816       0.00842244       0.03426653
Ga       2.24714292       2.08261382       1.57398617       0.00148250      -0.00790551       0.01973078
Ga       2.25219828       0.14139053       3.89395928      -0.00199723      -0.01228456      -0.04317876
Sn       0.02376373       2.16394766       5.83120410       0.00167917       0.00208134       0.00308606
Sn       0.01774689       0.31430199       0.53049660      -0.00388463       0.02192084       0.01608592
3
Lattice="3.934791669515307 0.0025378158977642992 2.2674417781374694 1.3084911336470049 3.710876063576412 2.266886398357984 0.002337613862272394 0.0018108160349805287 4.542314716059849" Properties=species:S:1:pos:R:3:forces:R:3 structure_index=14 total_energy=-9.425281524658203 stress="0.11258379369974136 -0.008435558527708054 -0.005816253833472729 -0.008435421623289585 0.11621775478124619 -0.005621457938104868 -0.0058165923692286015 -0.00562152499333024 0.11318480223417282" pbc="T T T"
Li       4.62578884       2.71659407       4.84458151      -0.00151098      -0.00050422      -0.00088153
Ga       3.31477879       1.78894641       7.11640123       0.00147730      -0.00100116      -0.00207800
Sn       2.00325999       0.85972831       4.84631828       0.00003368       0.00150537       0.00295953
6
Lattice="3.3547708945420833 0.0009239796929801459 -0.0004255757125018955 -0.0009297846987678519 3.3547611195621854 -0.0004950400847228751 0.0015982360162182855 0.001540009001844247 8.82451619637869" Properties=species:S:1:pos:R:3:forces:R:3 structure_index=15 total_energy=-16.184965133666992 stress="0.07617443054914474 -6.768009916413575e-05 0.00033986938069574535 -6.769887841073796e-05 0.07607248425483704 0.0002824185066856444 0.0003396347165107727 0.0002819412911776453 -0.06366776674985886" pbc="T T T"
Li       2.64439739       0.46755779       7.35355779       0.00109236       0.00063647      -0.03715177
Li       0.96535643       2.14388461       2.74657346       0.00062474      -0.00036140      -0.03974928
Li       0.96682023       2.14476567       8.83723713      -0.00051546      -0.00027239       0.03591873
Li       2.64435068       0.46745695       4.22184909      -0.00015744      -0.00006684       0.04546324
Ga       2.64288390       0.46631039       1.38076770       0.00061013       0.00079208      -0.00565531
Sn       0.96709996       2.14468032       5.78810261      -0.00165436      -0.00072792       0.00117441
4
Lattice="4.356314298760483 0.0011191540601438435 -0.004923155210320396 -0.002789986875855319 4.548701116865744 -0.0028810559439246676 0.0021897780821401617 0.0014579126047771587 4.544820055575741" Properties=species:S:1:pos:R:3:forces:R:3 structure_index=16 total_energy=-13.074112892150879 stress="0.044937774538993835 -0.005664279218763113 -0.010369186289608479 -0.0056642587296664715 0.06879894435405731 -0.00572578888386488 -0.010369034484028816 -0.00572605337947607 0.05581388622522354" pbc="T T T"
Li       4.19648091       1.57491437       3.01087922      -0.00069850      -0.00002388       0.00156062
Ga       4.19363279       3.84783707       0.73834154      -0.00042687       0.00126908      -0.00223927
Sn       2.01552755       1.57404440       0.74217147       0.00228691      -0.00105699      -0.00328883
Sn       2.01765088       3.84914045       3.01156214      -0.00116154      -0.00018822       0.00396748
16
Lattice="6.280389879859232 0.0040321529046897075 0.0011488325086307244 -0.003193915660437316 6.217409286423976 0.002098770173296194 -0.0016362912104173843 -0.0004247159094030243 9.158339984665298" Properties=species:S:1:pos:R:3:forces:R:3 structure_index=17 total_energy=-51.69913864135742 stress="0.014453631825745106 -8.523022552253678e-05 0.00012823160795960575 -8.51029617479071e-05 0.01646406389772892 0.00012293220788706094 0.00012840736599173397 0.00012282580428291112 0.0072672367095947266" pbc="T T T"
Li       4.73987882       2.49237517       4.59430499      -0.00851307      -0.03114811       0.00073002
Li       1.56149560       5.45841403       4.59341852       0.00840268       0.03104123       0.00132852
Li       3.15103757       0.86911025       2.29603298       0.00086554      -0.00061662      -0.00084205
Li       1.56319022       2.49588232       9.15559943       0.00833626      -0.03313193       0.00024902
Li       4.73522375       5.46217197       9.15609141      -0.00912936       0.03309969      -0.00038306
Ga       3.14913731       0.86893401       6.87458730       0.00293712      -0.00451623       0.00105941
Ga       0.00794608       0.86903783       6.87485725       0.00152359      -0.00387686      -0.00086349
Ga       0.01222469       0.86730040       2.29590561      -0.00009448      -0.00083532      -0.00095019
Sn       4.71192590       5.73608467       4.58990358      -0.00254160      -0.04382387       0.00357673
Sn       3.15222153       3.97712715       2.29706666      -0.00727072       0.00092909       0.00023818
Sn       0.01151833       3.97675055       6.87489812      -0.00271748       0.00167778       0.00011262
Sn       4.71466533       2.22006130       0.00438089      -0.00223928       0.04327659      -0.00249544
Sn       1.58872766       2.21422256       4.59043096       0.00140417       0.04885921      -0.00158231
Sn       1.58649609       5.73918339       0.00396166       0.00207173      -0.04686267      -0.00302011
Sn       3.15116871       3.97546048       6.87480028       0.00016903       0.00534279       0.00075983
Sn       0.00972383       3.97543083       2.29467767       0.00679591       0.00058520       0.00208231
12
Lattice="4.041097458261803 -0.0022458758068895383 9.816956968829116e-05 -2.0175650495400537 6.411172528203151 -0.006585264257475416 -7.30420014489732e-05 0.005720316827779292 8.170801897340949" Properties=species:S:1:pos:R:3:forces:R:3 structure_index=18 total_energy=-34.254241943359375 stress="-0.031796835362911224 -0.0002505526936147362 0.00012122633052058518 -0.0002506024029571563 -0.010347594507038593 1.904890609694121e-06 0.00012119461462134495 1.9789147245319327e-06 -0.015160860493779182" pbc="T T T"
Li       0.50320356       6.39453734       4.03582545      -0.00254703      -0.03576262       0.00412508
Li      -1.51932249       6.39993780       1.97773928       0.00091904       0.02281826       0.03689701
Li      -1.51897166       6.40374982       6.09701072      -0.00016644       0.02320530      -0.03643553
Li       0.50087898       3.95507084       2.01414594      -0.00078791      -0.02397384      -0.03108569
Li       2.51921275       3.96324366       8.13100536       0.00228492       0.03521940      -0.00639837
Li       0.50034665       3.96087685       6.07167353       0.00005826      -0.02708873       0.02796603
Ga       0.50070608       1.93398280       4.04357993      -0.00084578      -0.00395858      -0.00227710
Ga       2.52040218       1.97051859       2.00278755      -0.00119389       0.00100709      -0.00398363
Ga       2.51998906       1.97584930       6.08155258      -0.00034787      -0.00213559       0.00868486
Ga       0.49748837       2.01421728       8.12714605       0.00291135       0.00814176       0.00206521
Sn       2.52217487       4.23523169       4.04247252      -0.00124393       0.03574356      -0.00320771
Sn       0.50030079       6.12559916       8.12238753       0.00095926      -0.03321601       0.00364981
7
Lattice="4.228188114315982 -0.0019085535114777398 0.002077238015599006 -2.1110601358448595 5.105624679931442 -0.38153751376499323 -0.0032722147129581537 -0.03924462153632089 7.078566787976737" Properties=species:S:1:pos:R:3:forces:R:3 structure_index=19 total_energy=-22.271671295166016 stress="-0.003225361928343773 0.0002834871120285243 0.00010348219802835956 0.0002835565828718245 0.031764619052410126 -0.0014065171126276255 0.00010346461203880608 -0.0014065327122807503 0.03811804950237274" pbc="T T T"
Li       1.98621309       1.96383447       2.90073043      -0.00036368       0.01685233      -0.00262891
Li       1.98508572       3.50824766       5.98556481       0.00061082      -0.01695322       0.00395774
Ga       1.98668000       0.55895294       0.13073435      -0.00053459       0.02836053      -0.03560323
Ga       1.98841989       4.95289522       1.67833618      -0.00014070      -0.02888200       0.03527100
Sn      -0.12648498       2.75695489       0.90320725      -0.00049438       0.00020271       0.00007208
Sn      -0.12722873       4.19888993       3.79270846      -0.00065676      -0.00089662       0.03889345
Sn      -0.13017092       1.27487967       5.09274900       0.00157929       0.00131627      -0.03996212
9
Lattice="4.3515027657665994 0.0036468819432161747 1.0140879611569595 2.054174898611728 3.835984859043321 1.0148788137150875 -0.007611512812522295 -0.006510725073491136 9.874434468034691" Properties=species:S:1:pos:R:3:forces:R:3 structure_index=20 total_energy=-25.508058547973633 stress="0.018036408349871635 -0.00021391896007116884 0.0005579747958108783 -0.00021375055075623095 0.01807551458477974 0.00025146568077616394 0.0005583877209573984 0.000251639517955482 0.015427793376147747" pbc="T T T"
Li       4.74264733       2.35094482       2.98038339      -0.00511335      -0.00228889       0.01107180
Li       5.98846891       3.09776913       7.46991315       0.00363172       0.00155124      -0.01276166