# Thermal properties / unit cell (natom)

unit:
  temperature:   K
  free_energy:   kJ/mol
  entropy:       J/K/mol
  heat_capacity: J/K/mol

natom: 12   
cutoff_frequency: 0.00000
num_modes: 151380
num_integrated_modes: 150822

zero_point_energy:      37.3095723

thermal_properties:
- temperature:         0.0000000
  free_energy:        37.3095723
  entropy:             0.0000000
  heat_capacity:       0.0000000
  energy:             37.3095723

- temperature:        10.0000000
  free_energy:        37.2926597
  entropy:             5.2497244
  heat_capacity:      11.5662243
  energy:             37.3451569

- temperature:        20.0000000
  free_energy:        37.1593552
  entropy:            23.4288489
  heat_capacity:      46.9923149
  energy:             37.6279322

- temperature:        30.0000000
  free_energy:        36.7989419
  entropy:            49.1941730
  heat_capacity:      80.5292953
  energy:             38.2747671

- temperature:        40.0000000
  free_energy:        36.1736295
  entropy:            75.6837687
  heat_capacity:     103.1684818
  energy:             39.2009802

- temperature:        50.0000000
  free_energy:        35.2910419
  entropy:           100.5066472
  heat_capacity:     119.2283508
  energy:             40.3163743

- temperature:        60.0000000
  free_energy:        34.1697667
  entropy:           123.4627836
  heat_capacity:     132.8012338
  energy:             41.5775338

- temperature:        70.0000000
  free_energy:        32.8268187
  entropy:           144.9075775
  heat_capacity:     145.7128246
  energy:             42.9703492

- temperature:        80.0000000
  free_energy:        31.2754620
  entropy:           165.1940697
  heat_capacity:     158.3669746
  energy:             44.4909875

- temperature:        90.0000000
  free_energy:        29.5259971
  entropy:           184.5593100
  heat_capacity:     170.6127923
  energy:             46.1363350

- temperature:       100.0000000
  free_energy:        27.5868791
  entropy:           203.1415583
  heat_capacity:     182.1987160
  energy:             47.9010349

- temperature:       110.0000000
  free_energy:        25.4655158
  entropy:           221.0178180
  heat_capacity:     192.9378913
  energy:             49.7774758

- temperature:       120.0000000
  free_energy:        23.1687256
  entropy:           238.2327406
  heat_capacity:     202.7382016
  energy:             51.7566545

- temperature:       130.0000000
  free_energy:        20.7029657
  entropy:           254.8160768
  heat_capacity:     211.5849574
  energy:             53.8290557

- temperature:       140.0000000
  free_energy:        18.0744291
  entropy:           270.7918871
  heat_capacity:     219.5145217
  energy:             55.9852933

- temperature:       150.0000000
  free_energy:        15.2890775
  entropy:           286.1828450
  heat_capacity:     226.5919349
  energy:             58.2165042

- temperature:       160.0000000
  free_energy:        12.3526452
  entropy:           301.0119120
  heat_capacity:     232.8951843
  energy:             60.5145511

- temperature:       170.0000000
  free_energy:         9.2706335
  entropy:           315.3027307
  heat_capacity:     238.5052621
  energy:             62.8720977

- temperature:       180.0000000
  free_energy:         6.0483042
  entropy:           329.0794613
  heat_capacity:     243.5004141
  energy:             65.2826073

- temperature:       190.0000000
  free_energy:         2.6906768
  entropy:           342.3664313
  heat_capacity:     247.9531494
  energy:             67.7402987

- temperature:       200.0000000
  free_energy:        -0.7974723
  entropy:           355.1877684
  heat_capacity:     251.9289639
  energy:             70.2400814

- temperature:       210.0000000
  free_energy:        -4.4116053
  entropy:           367.5670874
  heat_capacity:     255.4860657
  energy:             72.7774831

- temperature:       220.0000000
  free_energy:        -8.1474170
  entropy:           379.5272515
  heat_capacity:     258.6756536
  energy:             75.3485783

- temperature:       230.0000000
  free_energy:       -12.0008264
  entropy:           391.0902056
  heat_capacity:     261.5424698
  energy:             77.9499209

- temperature:       240.0000000
  free_energy:       -15.9679669
  entropy:           402.2768715
  heat_capacity:     264.1254639
  energy:             80.5784822

- temperature:       250.0000000
  free_energy:       -20.0451758
  entropy:           413.1070927
  heat_capacity:     266.4584741
  energy:             83.2315974

- temperature:       260.0000000
  free_energy:       -24.2289832
  entropy:           423.5996155
  heat_capacity:     268.5708759
  energy:             85.9069168

- temperature:       270.0000000
  free_energy:       -28.5161014
  entropy:           433.7720976
  heat_capacity:     270.4881759
  energy:             88.6023649

- temperature:       280.0000000
  free_energy:       -32.9034138
  entropy:           443.6411357
  heat_capacity:     272.2325400
  energy:             91.3161042

- temperature:       290.0000000
  free_energy:       -37.3879647
  entropy:           453.2223053
  heat_capacity:     273.8232563
  energy:             94.0465038

- temperature:       300.0000000
  free_energy:       -41.9669492
  entropy:           462.5302085
  heat_capacity:     275.2771369
  energy:             96.7921134

- temperature:       310.0000000
  free_energy:       -46.6377037
  entropy:           471.5785267
  heat_capacity:     276.6088637
  energy:             99.5516396

- temperature:       320.0000000
  free_energy:       -51.3976972
  entropy:           480.3800741
  heat_capacity:     277.8312845
  energy:            102.3239265

- temperature:       330.0000000
  free_energy:       -56.2445227
  entropy:           488.9468525
  heat_capacity:     278.9556671
  energy:            105.1079386

- temperature:       340.0000000
  free_energy:       -61.1758892
  entropy:           497.2901042
  heat_capacity:     279.9919153
  energy:            107.9027462

- temperature:       350.0000000
  free_energy:       -66.1896149
  entropy:           505.4203635
  heat_capacity:     280.9487544
  energy:            110.7075124

- temperature:       360.0000000
  free_energy:       -71.2836195
  entropy:           513.3475052
  heat_capacity:     281.8338885
  energy:            113.5214824

- temperature:       370.0000000
  free_energy:       -76.4559189
  entropy:           521.0807913
  heat_capacity:     282.6541359
  energy:            116.3439739

- temperature:       380.0000000
  free_energy:       -81.7046182
  entropy:           528.6289138
  heat_capacity:     283.4155446
  energy:            119.1743690

- temperature:       390.0000000
  free_energy:       -87.0279072
  entropy:           536.0000355
  heat_capacity:     284.1234911
  energy:            122.0121067

- temperature:       400.0000000
  free_energy:       -92.4240545
  entropy:           543.2018280
  heat_capacity:     284.7827658
  energy:            124.8566767

- temperature:       410.0000000
  free_energy:       -97.8914034
  entropy:           550.2415060
  heat_capacity:     285.3976456
  energy:            127.7076141

- temperature:       420.0000000
  free_energy:      -103.4283670
  entropy:           557.1258603
  heat_capacity:     285.9719573
  energy:            130.5644944

- temperature:       430.0000000
  free_energy:      -109.0334242
  entropy:           563.8612876
  heat_capacity:     286.5091320
  energy:            133.4269295

- temperature:       440.0000000
  free_energy:      -114.7051164
  entropy:           570.4538181
  heat_capacity:     287.0122522
  energy:            136.2945636

- temperature:       450.0000000
  free_energy:      -120.4420433
  entropy:           576.9091412
  heat_capacity:     287.4840923
  energy:            139.1670703

- temperature:       460.0000000
  free_energy:      -126.2428598
  entropy:           583.2326290
  heat_capacity:     287.9271546
  energy:            142.0441495

- temperature:       470.0000000
  free_energy:      -132.1062733
  entropy:           589.4293582
  heat_capacity:     288.3436998
  energy:            144.9255250

- temperature:       480.0000000
  free_energy:      -138.0310405
  entropy:           595.5041301
  heat_capacity:     288.7357743
  energy:            147.8109419

- temperature:       490.0000000
  free_energy:      -144.0159646
  entropy:           601.4614892
  heat_capacity:     289.1052333
  energy:            150.7001651

- temperature:       500.0000000
  free_energy:      -150.0598933
  entropy:           607.3057403
  heat_capacity:     289.4537620
  energy:            153.5929769

- temperature:       510.0000000
  free_energy:      -156.1617160
  entropy:           613.0409641
  heat_capacity:     289.7828935
  energy:            156.4891757

- temperature:       520.0000000
  free_energy:      -162.3203621
  entropy:           618.6710323
  heat_capacity:     290.0940247
  energy:            159.3885747

- temperature:       530.0000000
  free_energy:      -168.5347984
  entropy:           624.1996205
  heat_capacity:     290.3884305
  energy:            162.2910005

- temperature:       540.0000000
  free_energy:      -174.8040279
  entropy:           629.6302210
  heat_capacity:     290.6672761
  energy:            165.1962915

- temperature:       550.0000000
  free_energy:      -181.1270873
  entropy:           634.9661545
  heat_capacity:     290.9316280
  energy:            168.1042977

- temperature:       560.0000000
  free_energy:      -187.5030459
  entropy:           640.2105803
  heat_capacity:     291.1824638
  energy:            171.0148790

- temperature:       570.0000000
  free_energy:      -193.9310039
  entropy:           645.3665067
  heat_capacity:     291.4206811
  energy:            173.9279049

- temperature:       580.0000000
  free_energy:      -200.4100906
  entropy:           650.4368000
  heat_capacity:     291.6471047
  energy:            176.8432533

- temperature:       590.0000000
  free_energy:      -206.9394636
  entropy:           655.4241929
  heat_capacity:     291.8624936
  energy:            179.7608102

- temperature:       600.0000000
  free_energy:      -213.5183069
  entropy:           660.3312927
  heat_capacity:     292.0675476
  energy:            182.6804688

- temperature:       610.0000000
  free_energy:      -220.1458301
  entropy:           665.1605885
  heat_capacity:     292.2629119
  energy:            185.6021289

- temperature:       620.0000000
  free_energy:      -226.8212672
  entropy:           669.9144579
  heat_capacity:     292.4491830
  energy:            188.5256967

- temperature:       630.0000000
  free_energy:      -233.5438754
  entropy:           674.5951738
  heat_capacity:     292.6269122
  energy:            191.4510841

- temperature:       640.0000000
  free_energy:      -240.3129341
  entropy:           679.2049098
  heat_capacity:     292.7966102
  energy:            194.3782082

- temperature:       650.0000000
  free_energy:      -247.1277440
  entropy:           683.7457462
  heat_capacity:     292.9587502
  energy:            197.3069911

- temperature:       660.0000000
  free_energy:      -253.9876260
  entropy:           688.2196750
  heat_capacity:     293.1137715
  energy:            200.2373594

- temperature:       670.0000000
  free_energy:      -260.8919208
  entropy:           692.6286044
  heat_capacity:     293.2620820
  energy:            203.1692441

- temperature:       680.0000000
  free_energy:      -267.8399876
  entropy:           696.9743640
  heat_capacity:     293.4040610
  energy:            206.1025800

- temperature:       690.0000000
  free_energy:      -274.8312034
  entropy:           701.2587085
  heat_capacity:     293.5400616
  energy:            209.0373054

- temperature:       700.0000000
  free_energy:      -281.8649626
  entropy:           705.4833215
  heat_capacity:     293.6704128
  energy:            211.9733624

- temperature:       710.0000000
  free_energy:      -288.9406761
  entropy:           709.6498197
  heat_capacity:     293.7954213
  energy:            214.9106959

- temperature:       720.0000000
  free_energy:      -296.0577705
  entropy:           713.7597562
  heat_capacity:     293.9153736
  energy:            217.8492540

- temperature:       730.0000000
  free_energy:      -303.2156877
  entropy:           717.8146234
  heat_capacity:     294.0305372
  energy:            220.7889874

- temperature:       740.0000000
  free_energy:      -310.4138842
  entropy:           721.8158564
  heat_capacity:     294.1411622
  energy:            223.7298496

- temperature:       750.0000000
  free_energy:      -317.6518306
  entropy:           725.7648359
  heat_capacity:     294.2474828
  energy:            226.6717963

- temperature:       760.0000000
  free_energy:      -324.9290112
  entropy:           729.6628905
  heat_capacity:     294.3497183
  energy:            229.6147856

- temperature:       770.0000000
  free_energy:      -332.2449230
  entropy:           733.5112996
  heat_capacity:     294.4480743
  energy:            232.5587777

- temperature:       780.0000000
  free_energy:      -339.5990758
  entropy:           737.3112956
  heat_capacity:     294.5427436
  energy:            235.5037348

- temperature:       790.0000000
  free_energy:      -346.9909915
  entropy:           741.0640663
  heat_capacity:     294.6339074
  energy:            238.4496209

- temperature:       800.0000000
  free_energy:      -354.4202035
  entropy:           744.7707567
  heat_capacity:     294.7217359
  energy:            241.3964019

- temperature:       810.0000000
  free_energy:      -361.8862567
  entropy:           748.4324713
  heat_capacity:     294.8063890
  energy:            244.3440451

- temperature:       820.0000000
  free_energy:      -369.3887066
  entropy:           752.0502758
  heat_capacity:     294.8880173
  energy:            247.2925195

- temperature:       830.0000000
  free_energy:      -376.9271193
  entropy:           755.6251989
  heat_capacity:     294.9667627
  energy:            250.2417958

- temperature:       840.0000000
  free_energy:      -384.5010709
  entropy:           759.1582340
  heat_capacity:     295.0427586
  energy:            253.1918456

- temperature:       850.0000000
  free_energy:      -392.1101475
  entropy:           762.6503409
  heat_capacity:     295.1161313
  energy:            256.1426422

- temperature:       860.0000000
  free_energy:      -399.7539444
  entropy:           766.1024469
  heat_capacity:     295.1869994
  energy:            259.0941599

- temperature:       870.0000000
  free_energy:      -407.4320661
  entropy:           769.5154487
  heat_capacity:     295.2554753
  energy:            262.0463742

- temperature:       880.0000000
  free_energy:      -415.1441259
  entropy:           772.8902133
  heat_capacity:     295.3216651
  energy:            264.9992618

- temperature:       890.0000000
  free_energy:      -422.8897457
  entropy:           776.2275797
  heat_capacity:     295.3856690
  energy:            267.9528003

- temperature:       900.0000000
  free_energy:      -430.6685556
  entropy:           779.5283598
  heat_capacity:     295.4475819
  energy:            270.9069682

- temperature:       910.0000000
  free_energy:      -438.4801936
  entropy:           782.7933393
  heat_capacity:     295.5074935
  energy:            273.8617452

- temperature:       920.0000000
  free_energy:      -446.3243056
  entropy:           786.0232796
  heat_capacity:     295.5654889
  energy:            276.8171117

- temperature:       930.0000000
  free_energy:      -454.2005448
  entropy:           789.2189180
  heat_capacity:     295.6216486
  energy:            279.7730489

- temperature:       940.0000000
  free_energy:      -462.1085720
  entropy:           792.3809689
  heat_capacity:     295.6760491
  energy:            282.7295388

- temperature:       950.0000000
  free_energy:      -470.0480546
  entropy:           795.5101251
  heat_capacity:     295.7287629
  energy:            285.6865642

- temperature:       960.0000000
  free_energy:      -478.0186671
  entropy:           798.6070581
  heat_capacity:     295.7798587
  energy:            288.6441087

- temperature:       970.0000000
  free_energy:      -486.0200905
  entropy:           801.6724193
  heat_capacity:     295.8294019
  energy:            291.6021562

- temperature:       980.0000000
  free_energy:      -494.0520123
  entropy:           804.7068409
  heat_capacity:     295.8774545
  energy:            294.5606917

- temperature:       990.0000000
  free_energy:      -502.1141262
  entropy:           807.7109361
  heat_capacity:     295.9240756
  energy:            297.5197006

- temperature:      1000.0000000
  free_energy:      -510.2061319
  entropy:           810.6853006
  heat_capacity:     295.9693214
  energy:            300.4791687
