phonopy:
  version: "2.37.1"
  frequency_unit_conversion_factor: 15.633302
  symmetry_tolerance: 1.00000e-05

space_group:
  type: "I4/mmm"
  number: 139
  Hall_symbol: "-I 4 2"

primitive_matrix:
- [ -1.000000000000000,  0.000000000000000,  1.000000000000000 ]
- [  0.000000000000000, -1.000000000000000,  1.000000000000000 ]
- [  0.000000000000000,  0.000000000000000,  1.000000000000000 ]

supercell_matrix:
- [   2,   0,   0 ]
- [   0,   2,   0 ]
- [   0,   0,   2 ]

primitive_cell:
  lattice:
  - [    -5.196315418049786,     0.000000000000000,     0.000000000000000 ] # a
  - [    -2.814229816933258,    -4.368272434034750,     0.000000000000000 ] # b
  - [     4.005272517918717,     2.184136150145158,     2.487776976048383 ] # c
  points:
  - symbol: Li # 1
    coordinates: [  0.670719576783005,  0.670719577230242,  0.999999997839584 ]
    mass: 6.940000
  - symbol: Li # 2
    coordinates: [  0.329280420962210,  0.329280421075296,  0.999999996503360 ]
    mass: 6.940000
  - symbol: Sn # 3
    coordinates: [  0.000000002210588,  0.000000001577071,  0.000000005605893 ]
    mass: 118.710000
  reciprocal_lattice: # without 2pi
  - [    -0.192444053054675,     0.123980772805812,     0.200982641909839 ] # a*
  - [    -0.000000000000000,    -0.228923450883843,     0.200982640126201 ] # b*
  - [    -0.000000000000000,    -0.000000000000000,     0.401965292559469 ] # c*

unit_cell:
  lattice:
  - [     5.196315418049786,     0.000000000000000,     0.000000000000000 ] # a
  - [     2.814229816933258,     4.368272434034749,     0.000000000000000 ] # b
  - [    -4.005272717064326,    -2.184136283889591,     2.487776976048383 ] # c
  points:
  - symbol: Li # 1
    coordinates: [  0.329280421056579,  0.329280420609342,  0.999999997839584 ]
    mass: 6.940000
    reduced_to: 1
  - symbol: Li # 2
    coordinates: [  0.670719575541150,  0.670719575428064,  0.999999996503360 ]
    mass: 6.940000
    reduced_to: 2
  - symbol: Sn # 3
    coordinates: [  0.000000003395305,  0.000000004028823,  0.000000005605893 ]
    mass: 118.710000
    reduced_to: 3

supercell:
  lattice:
  - [    10.392630836099572,     0.000000000000000,     0.000000000000000 ] # a
  - [     5.628459633866515,     8.736544868069497,     0.000000000000000 ] # b
  - [    -8.010545434128652,    -4.368272567779182,     4.975553952096766 ] # c
  points:
  - symbol: Li # 1
    coordinates: [  0.164640210528289,  0.164640210304671,  0.499999998919792 ]
    mass: 6.940000
    reduced_to: 1
  - symbol: Li # 2
    coordinates: [  0.664640210528289,  0.164640210304671,  0.499999998919792 ]
    mass: 6.940000
    reduced_to: 1
  - symbol: Li # 3
    coordinates: [  0.164640210528289,  0.664640210304671,  0.499999998919792 ]
    mass: 6.940000
    reduced_to: 1
  - symbol: Li # 4
    coordinates: [  0.664640210528289,  0.664640210304671,  0.499999998919792 ]
    mass: 6.940000
    reduced_to: 1
  - symbol: Li # 5
    coordinates: [  0.164640210528289,  0.164640210304671,  0.999999998919792 ]
    mass: 6.940000
    reduced_to: 1
  - symbol: Li # 6
    coordinates: [  0.664640210528289,  0.164640210304671,  0.999999998919792 ]
    mass: 6.940000
    reduced_to: 1
  - symbol: Li # 7
    coordinates: [  0.164640210528289,  0.664640210304671,  0.999999998919792 ]
    mass: 6.940000
    reduced_to: 1
  - symbol: Li # 8
    coordinates: [  0.664640210528289,  0.664640210304671,  0.999999998919792 ]
    mass: 6.940000
    reduced_to: 1
  - symbol: Li # 9
    coordinates: [  0.335359787770575,  0.335359787714032,  0.499999998251680 ]
    mass: 6.940000
    reduced_to: 9
  - symbol: Li # 10
    coordinates: [  0.835359787770575,  0.335359787714032,  0.499999998251680 ]
    mass: 6.940000
    reduced_to: 9
  - symbol: Li # 11
    coordinates: [  0.335359787770575,  0.835359787714032,  0.499999998251680 ]
    mass: 6.940000
    reduced_to: 9
  - symbol: Li # 12
    coordinates: [  0.835359787770575,  0.835359787714032,  0.499999998251680 ]
    mass: 6.940000
    reduced_to: 9
  - symbol: Li # 13
    coordinates: [  0.335359787770575,  0.335359787714032,  0.999999998251680 ]
    mass: 6.940000
    reduced_to: 9
  - symbol: Li # 14
    coordinates: [  0.835359787770575,  0.335359787714032,  0.999999998251680 ]
    mass: 6.940000
    reduced_to: 9
  - symbol: Li # 15
    coordinates: [  0.335359787770575,  0.835359787714032,  0.999999998251680 ]
    mass: 6.940000
    reduced_to: 9
  - symbol: Li # 16
    coordinates: [  0.835359787770575,  0.835359787714032,  0.999999998251680 ]
    mass: 6.940000
    reduced_to: 9
  - symbol: Sn # 17
    coordinates: [  0.000000001697652,  0.000000002014411,  0.000000002802947 ]
    mass: 118.710000
    reduced_to: 17
  - symbol: Sn # 18
    coordinates: [  0.500000001697652,  0.000000002014411,  0.000000002802947 ]
    mass: 118.710000
    reduced_to: 17
  - symbol: Sn # 19
    coordinates: [  0.000000001697652,  0.500000002014411,  0.000000002802947 ]
    mass: 118.710000
    reduced_to: 17
  - symbol: Sn # 20
    coordinates: [  0.500000001697652,  0.500000002014411,  0.000000002802947 ]
    mass: 118.710000
    reduced_to: 17
  - symbol: Sn # 21
    coordinates: [  0.000000001697652,  0.000000002014411,  0.500000002802947 ]
    mass: 118.710000
    reduced_to: 17
  - symbol: Sn # 22
    coordinates: [  0.500000001697652,  0.000000002014411,  0.500000002802947 ]
    mass: 118.710000
    reduced_to: 17
  - symbol: Sn # 23
    coordinates: [  0.000000001697652,  0.500000002014411,  0.500000002802947 ]
    mass: 118.710000
    reduced_to: 17
  - symbol: Sn # 24
    coordinates: [  0.500000001697652,  0.500000002014411,  0.500000002802947 ]
    mass: 118.710000
    reduced_to: 17

displacements:
- atom:    1
  displacement:
    [   0.0100000000000000,  0.0000000000000000,  0.0000000000000000 ]
  forces:
  - [  -0.0364889316260815, -0.0088107436895370,  0.0000002643791959 ]
  - [  -0.0115879848599434, -0.0064582154154778, -0.0000001649877959 ]
  - [  -0.0113702900707722, -0.0065971501171589,  0.0000000550844561 ]
  - [  -0.0109117850661278, -0.0063662584871054, -0.0000006513437256 ]
  - [  -0.0116122588515282, -0.0062827207148075,  0.0001135382335633 ]
  - [  -0.0115212909877300, -0.0064992737025023,  0.0001875222369563 ]
  - [  -0.0115209668874741, -0.0064992327243090, -0.0001876878668554 ]
  - [  -0.0116132982075214, -0.0062831509858370, -0.0001133714758907 ]
  - [   0.0132613666355610,  0.0072286408394575,  0.0000000522268238 ]
  - [   0.0159791223704815,  0.0039063841104507, -0.0000002376254997 ]
  - [   0.0110548101365566,  0.0070797912776470,  0.0000002596934792 ]
  - [   0.0095421336591244,  0.0063342694193125, -0.0000002155720722 ]
  - [   0.0126677192747593,  0.0070659425109625, -0.0025800026487559 ]
  - [   0.0118768848478794,  0.0062943436205387,  0.0000297857768601 ]
  - [   0.0118775516748428,  0.0062940493226051, -0.0000293890989269 ]
  - [   0.0126666873693466,  0.0070651918649673,  0.0025804825127125 ]
  - [   0.0024701063521206,  0.0014816697221249, -0.0041629774495959 ]
  - [  -0.0000704001795384, -0.0000874470497365, -0.0000248647666012 ]
  - [  -0.0000700838863850, -0.0000877063721418,  0.0000241616507992 ]
  - [   0.0024699037894607,  0.0014816001057625,  0.0041633276268840 ]
  - [   0.0055361888371408,  0.0026743253692985, -0.0000002720880730 ]
  - [   0.0081872371956706, -0.0039466246962547, -0.0000004914127203 ]
  - [  -0.0000408333144151,  0.0011066102888435,  0.0000002268061507 ]
  - [  -0.0007816498982720, -0.0000942180486163,  0.0000006445588951 ]
- atom:    1
  displacement:
    [  -0.0100000000000000,  0.0000000000000000,  0.0000000000000000 ]
  forces:
  - [   0.0129261240363121, -0.0038281269371510,  0.0000000986037776 ]
  - [  -0.0120330043137074, -0.0064192432910204, -0.0000000936961442 ]
  - [  -0.0122502483427525, -0.0062779430299997,  0.0000001061489456 ]
  - [  -0.0127107016742229, -0.0065058618783951, -0.0000005394686013 ]
  - [  -0.0120055526494980, -0.0065973587334156, -0.0001135733909905 ]
  - [  -0.0120974145829678, -0.0063785072416067, -0.0001937621855177 ]
  - [  -0.0120971575379372, -0.0063784606754780,  0.0001938119530678 ]
  - [  -0.0120064429938793, -0.0065977629274130,  0.0001135488055297 ]
  - [   0.0104080922901630,  0.0056820008903742, -0.0000001016742317 ]
  - [   0.0075709447264671,  0.0090330410748720, -0.0000001972548489 ]
  - [   0.0125679001212120,  0.0058151688426733,  0.0000002195738489 ]
  - [   0.0140826106071472,  0.0065337438136339, -0.0000000733707566 ]
  - [   0.0109573118388653,  0.0058114938437939,  0.0026002391241491 ]
  - [   0.0117405876517296,  0.0065850913524628, -0.0000319683094858 ]
  - [   0.0117411613464355,  0.0065847337245941,  0.0000323268541251 ]
  - [   0.0109564587473869,  0.0058107562363148, -0.0025995774194598 ]
  - [  -0.0024769571609795, -0.0014659285079688,  0.0041126431897283 ]
  - [   0.0000837790939840,  0.0000900998056750,  0.0000321367115248 ]
  - [   0.0000842902809381,  0.0000890567898750, -0.0000315316610795 ]
  - [  -0.0024772314354777, -0.0014664772897959, -0.0041127060540020 ]
  - [  -0.0057999072596431, -0.0028398018330336, -0.0000003741806722 ]
  - [  -0.0079680886119604,  0.0037922863848507, -0.0000000016807462 ]
  - [   0.0000224621471716, -0.0011648690560833, -0.0000000260151864 ]
  - [   0.0007810600800440,  0.0000928870722419, -0.0000005967631296 ]
- atom:   17
  displacement:
    [   0.0100000000000000,  0.0000000000000000,  0.0000000000000000 ]
  forces:
  - [  -0.0093208812177181, -0.0049688033759594, -0.0043003945611417 ]
  - [  -0.0118947662413120, -0.0065293293446302, -0.0000314292992698 ]
  - [  -0.0118945054709911, -0.0065300483256578,  0.0000313945347443 ]
  - [  -0.0093217566609383, -0.0049698986113071,  0.0043003400787711 ]
  - [  -0.0060111992061138, -0.0035998187959194,  0.0000004268949851 ]
  - [  -0.0038337521255016, -0.0104389637708664,  0.0000003797904355 ]
  - [  -0.0118240118026733, -0.0050460491329432, -0.0000004514113243 ]
  - [  -0.0125928968191147, -0.0065336860716343, -0.0000004683424777 ]
  - [   0.0142672136425972,  0.0079163201153278,  0.0043597603216767 ]
  - [   0.0117385163903236,  0.0063522979617119,  0.0000246332274401 ]
  - [   0.0117392539978027,  0.0063532833009958, -0.0000245454430114 ]
  - [   0.0142658464610577,  0.0079157911241055, -0.0043597407639027 ]
  - [   0.0110276676714420,  0.0063447561115026, -0.0000000480067683 ]
  - [   0.0117589831352234,  0.0077557954937220,  0.0000002269152901 ]
  - [   0.0199863463640213,  0.0022608265280724,  0.0000000518666639 ]
  - [   0.0173449516296387,  0.0091123636811972,  0.0000005569308996 ]
  - [  -0.0371136143803596, -0.0071223941631615,  0.0000002076997134 ]
  - [   0.0006827866309322,  0.0001690457283985,  0.0000000251711754 ]
  - [   0.0005492707714438,  0.0002545323222876, -0.0000007719352766 ]
  - [   0.0006268257275224, -0.0000995118170977,  0.0000002402481698 ]
  - [   0.0005528891342692,  0.0003309028688818, -0.0000699124648236 ]
  - [  -0.0006419046549127,  0.0003721041139215, -0.0008556123357266 ]
  - [  -0.0006420270656236,  0.0003710900491569,  0.0008548170444556 ]
  - [   0.0005507820169441,  0.0003293535264675,  0.0000703166297171 ]

force_constants:
  format: "full"
  shape: [ 24, 24 ]
  elements:
  - # (1, 1)
    - [     2.470718933043782,     0.249118310646184,     0.000000014366550 ]
    - [     0.249118310646184,     2.149733383180464,     0.000000009163845 ]
    - [     0.000000014366550,     0.000000009163845,     2.013885367114645 ]
  - # (1, 2)
    - [    -0.022285439022878,     0.001938091737474,     0.000000002327524 ]
    - [     0.001938092864419,    -0.055551741471003,     0.000000000338419 ]
    - [     0.000000001587240,     0.000000002573423,     0.009176151191499 ]
  - # (1, 3)
    - [    -0.044029626915075,     0.015946637700850,     0.000000000627898 ]
    - [     0.015946638891750,    -0.033807551800679,     0.000000003575071 ]
    - [     0.000000002874816,     0.000000000526404,     0.009176151783062 ]
  - # (1, 4)
    - [    -0.089979679724989,    -0.006992701265018,    -0.000000007114013 ]
    - [    -0.006992700591759,    -0.080969682106619,    -0.000000002549834 ]
    - [    -0.000000005658892,    -0.000000003860562,    -0.077156457907228 ]
  - # (1, 5)
    - [    -0.019695572247425,    -0.015744196609449,    -0.011354480972834 ]
    - [    -0.015744195898266,     0.000590604518237,    -0.006191771213739 ]
    - [    -0.011354479063980,    -0.006191771212462,    -0.049556054670939 ]
  - # (1, 6)
    - [    -0.028841702760412,     0.006025930574528,    -0.019069605767961 ]
    - [     0.006025932657903,    -0.036606041012112,     0.034969876981699 ]
    - [    -0.019069605122862,     0.034969872777547,    -0.039892067528199 ]
  - # (1, 7)
    - [    -0.028841711321855,     0.006025934964731,     0.019069605115271 ]
    - [     0.006025936823397,    -0.036606036197416,    -0.034969875584734 ]
    - [     0.019069604352585,    -0.034969874486885,    -0.039892068235174 ]
  - # (1, 8)
    - [    -0.019695576551183,    -0.015744194205495,     0.011354483999048 ]
    - [    -0.015744194144556,     0.000590607053022,     0.006191775541949 ]
    - [     0.011354484483744,     0.006191774050683,    -0.049556053892080 ]
  - # (1, 9)
    - [    -0.142697566535426,    -0.077344529190640,    -0.000000007425673 ]
    - [    -0.077344530004650,    -0.043040195397014,    -0.000000002719786 ]
    - [    -0.000000013025283,    -0.000000007877568,    -0.000863046098845 ]
  - # (1, 10)
    - [    -0.420435199549106,     0.256329560744735,    -0.000000004080483 ]
    - [     0.256329561935634,    -0.048771556423063,     0.000000007911221 ]
    - [    -0.000000001833566,     0.000000004862554,     0.029493129003658 ]
  - # (1, 11)
    - [     0.075618749503852,    -0.063249820914051,     0.000000003003888 ]
    - [    -0.063249819787105,    -0.544825507254146,    -0.000000007814818 ]
    - [     0.000000002263604,    -0.000000005579814,     0.029493128412094 ]
  - # (1, 12)
    - [     0.226989997325862,     0.009961190215421,     0.000000002375466 ]
    - [     0.009961190215421,     0.214155141952209,     0.000000002624924 ]
    - [     0.000000002375466,     0.000000002624924,     0.208723150885691 ]
  - # (1, 13)
    - [    -0.085552579588493,    -0.062736180448859,     0.259031750852248 ]
    - [    -0.062736180387920,    -0.004717862810149,     0.141253967129676 ]
    - [     0.259031751336944,     0.141253965638409,    -0.349443181027418 ]
  - # (1, 14)
    - [    -0.006851042603988,     0.014523276026294,    -0.003086752332434 ]
    - [     0.014523276172993,    -0.025564076522050,     0.005660488526602 ]
    - [    -0.003086750666643,     0.005660488263231,    -0.033483837254028 ]
  - # (1, 15)
    - [    -0.006851035642992,     0.014523271070995,     0.003086750824098 ]
    - [     0.014523274634749,    -0.025564079736299,    -0.005660487531457 ]
    - [     0.003086751843432,    -0.005660488846028,    -0.033483837368465 ]
  - # (1, 16)
    - [    -0.085552558217022,    -0.062736171998051,    -0.259031740392983 ]
    - [    -0.062736175718997,    -0.004717860327276,    -0.141253967786869 ]
    - [    -0.259031733118840,    -0.141253954100007,    -0.349443206772025 ]
  - # (1, 17)
    - [    -0.247304286701052,    -0.147364457868299,     0.413794924601935 ]
    - [    -0.147364458449107,    -0.057427185785428,     0.225648686931605 ]
    - [     0.433060521834040,     0.236154509041469,    -0.652916426934964 ]
  - # (1, 18)
    - [     0.007767354055689,     0.008857635924757,     0.002808714422619 ]
    - [     0.008857635818054,    -0.003645576831534,    -0.005150629202613 ]
    - [     0.002808715733848,    -0.005150628815833,    -0.008475779238310 ]
  - # (1, 19)
    - [     0.007767362913422,     0.008857629551746,    -0.002808716462048 ]
    - [     0.008857633576517,    -0.003645581153662,     0.005150630202247 ]
    - [    -0.002808715706908,     0.005150627787900,    -0.008475779134342 ]
  - # (1, 20)
    - [    -0.247304251083626,    -0.147364443399703,    -0.413794911823236 ]
    - [    -0.147364452455897,    -0.057427183141879,    -0.225648691872461 ]
    - [    -0.433060498448700,    -0.236154493246758,    -0.652916466848918 ]
  - # (1, 21)
    - [    -0.566729535153940,    -0.275660502877050,    -0.000000022075693 ]
    - [    -0.275660507705946,    -0.211544735279475,    -0.000000010789478 ]
    - [    -0.000000046214028,    -0.000000026269685,    -0.061222858154494 ]
  - # (1, 22)
    - [    -0.807653797886732,     0.386940441948868,    -0.000000009391479 ]
    - [     0.408884361779784,    -0.172927001894268,     0.000000010350612 ]
    - [    -0.000000006988989,     0.000000005493354,     0.022932895856278 ]
  - # (1, 23)
    - [     0.003223611806223,    -0.113517892987220,     0.000000002153517 ]
    - [    -0.135461810937710,    -0.983804413634475,    -0.000000015188796 ]
    - [     0.000000000226235,    -0.000000011483624,     0.022932895193340 ]
  - # (1, 24)
    - [     0.078215152857364,     0.009407180657251,     0.000000003168777 ]
    - [     0.009407180065108,     0.066094132074617,     0.000000002976717 ]
    - [     0.000000002570186,     0.000000002975481,     0.060964251625162 ]
  - # (2, 1)
    - [    -0.022285439022878,     0.001938092864419,     0.000000001587240 ]
    - [     0.001938091737474,    -0.055551741471003,     0.000000002573423 ]
    - [     0.000000002327524,     0.000000000338419,     0.009176151191499 ]
  - # (2, 2)
    - [     2.470718931178065,     0.249118309806962,     0.000000015736442 ]
    - [     0.249118309806962,     2.149733381657587,     0.000000009032844 ]
    - [     0.000000015736442,     0.000000009032844,     2.013885363193493 ]
  - # (2, 3)
    - [    -0.089979681322515,    -0.006992699848172,     0.000000001442534 ]
    - [    -0.006992699784218,    -0.080969680813498,     0.000000004694477 ]
    - [     0.000000004429735,    -0.000000000589194,    -0.077156459966470 ]
  - # (2, 4)
    - [    -0.044029627416118,     0.015946636627330,    -0.000000003660190 ]
    - [     0.015946636510519,    -0.033807554153985,     0.000000000419084 ]
    - [    -0.000000002639647,    -0.000000003060053,     0.009176149921153 ]
  - # (2, 5)
    - [    -0.028841703582586,     0.006025929649323,    -0.019069604948368 ]
    - [     0.006025929985174,    -0.036606041230094,     0.034969877449046 ]
    - [    -0.019069602429959,     0.034969872116732,    -0.039892070834466 ]
  - # (2, 6)
    - [    -0.019695573290969,    -0.015744195396520,    -0.011354481162819 ]
    - [    -0.015744195191704,     0.000590603213342,    -0.006191769577082 ]
    - [    -0.011354479646707,    -0.006191772917652,    -0.049556055285824 ]
  - # (2, 7)
    - [    -0.019695580592028,    -0.015744192732103,     0.011354479559569 ]
    - [    -0.015744192062934,     0.000590606146801,     0.006191771708251 ]
    - [     0.011354480830934,     0.006191769550260,    -0.049556053423175 ]
  - # (2, 8)
    - [    -0.028841708655512,     0.006025933442197,     0.019069608914831 ]
    - [     0.006025932376190,    -0.036606035510740,    -0.034969869520663 ]
    - [     0.019069610139811,    -0.034969873246934,    -0.039892071834380 ]
  - # (2, 9)
    - [    -0.420435196081705,     0.256329557803459,    -0.000000007512227 ]
    - [     0.256329559538498,    -0.048771557731252,     0.000000005222212 ]
    - [    -0.000000017688471,     0.000000011064753,     0.029493127141748 ]
  - # (2, 10)
    - [    -0.142697568188186,    -0.077344528481845,    -0.000000002084832 ]
    - [    -0.077344528417891,    -0.043040194048659,     0.000000002770951 ]
    - [     0.000000000902369,    -0.000000002512721,    -0.000863048158087 ]
  - # (2, 11)
    - [     0.226989995460144,     0.009961189376199,     0.000000003745358 ]
    - [     0.009961189376199,     0.214155140429333,     0.000000002493923 ]
    - [     0.000000003745358,     0.000000002493923,     0.208723146964540 ]
  - # (2, 12)
    - [     0.075618749503852,    -0.063249819787105,     0.000000002263604 ]
    - [    -0.063249820914051,    -0.544825507254146,    -0.000000005579814 ]
    - [     0.000000003003888,    -0.000000007814818,     0.029493128412094 ]
  - # (2, 13)
    - [    -0.006851039740369,     0.014523273621181,    -0.003086747320126 ]
    - [     0.014523272555175,    -0.025564076401241,     0.005660493876862 ]
    - [    -0.003086746095145,     0.005660490150591,    -0.033483840895349 ]
  - # (2, 14)
    - [    -0.085552578436520,    -0.062736176823394,     0.259031742202254 ]
    - [    -0.062736172715528,    -0.004717860366826,     0.141253953198226 ]
    - [     0.259031739047414,     0.141253956530936,    -0.349443164893754 ]
  - # (2, 15)
    - [    -0.085552559260567,    -0.062736170785122,    -0.259031740582968 ]
    - [    -0.062736175012436,    -0.004717861632171,    -0.141253966150211 ]
    - [    -0.259031733701566,    -0.141253955805197,    -0.349443207386909 ]
  - # (2, 16)
    - [    -0.006851036465166,     0.014523270145790,     0.003086751643690 ]
    - [     0.014523271962020,    -0.025564079954281,    -0.005660487064110 ]
    - [     0.003086754536334,    -0.005660489506843,    -0.033483840674731 ]
  - # (2, 17)
    - [     0.007767357304320,     0.008857633638518,     0.002808720612185 ]
    - [     0.008857631980965,    -0.003645577130836,    -0.005150622601495 ]
    - [     0.002808721193033,    -0.005150626790182,    -0.008475782058131 ]
  - # (2, 18)
    - [    -0.247304284340521,    -0.147364452114856,     0.413794908557679 ]
    - [    -0.147364444107585,    -0.057427179627669,     0.225648663128727 ]
    - [     0.433060498961371,     0.236154493992044,    -0.652916398186824 ]
  - # (2, 19)
    - [    -0.247304251885841,    -0.147364442023366,    -0.413794912419435 ]
    - [    -0.147364451721768,    -0.057427184918025,    -0.225648690233029 ]
    - [    -0.433060499914825,    -0.236154495338315,    -0.652916467122141 ]
  - # (2, 20)
    - [     0.007767361849919,     0.008857628463133,    -0.002808715236241 ]
    - [     0.008857630876220,    -0.003645580900392,     0.005150630666819 ]
    - [    -0.002808712130606,     0.005150627513452,    -0.008475782782271 ]
  - # (2, 21)
    - [    -0.807653790959894,     0.386940437139415,    -0.000000015814011 ]
    - [     0.408884358928003,    -0.172927003798080,     0.000000005283726 ]
    - [    -0.000000036884821,     0.000000014010640,     0.022932894299199 ]
  - # (2, 22)
    - [    -0.566729538852798,    -0.275660502543196,    -0.000000011476068 ]
    - [    -0.275660502866514,    -0.211544731421430,    -0.000000001684090 ]
    - [    -0.000000008629064,    -0.000000008338536,    -0.061222860518564 ]
  - # (2, 23)
    - [     0.078215150971699,     0.009407179319771,     0.000000004861200 ]
    - [     0.009407179268332,     0.066094130548487,     0.000000002362020 ]
    - [     0.000000003966936,     0.000000003393106,     0.060964247002912 ]
  - # (2, 24)
    - [     0.003223611826171,    -0.113517891362017,     0.000000001090702 ]
    - [    -0.135461812107102,    -0.983804413631221,    -0.000000012470096 ]
    - [     0.000000000939662,    -0.000000014267254,     0.022932895894439 ]
  - # (3, 1)
    - [    -0.044029626915075,     0.015946638891750,     0.000000002874816 ]
    - [     0.015946637700850,    -0.033807551800679,     0.000000000526404 ]
    - [     0.000000000627898,     0.000000003575071,     0.009176151783062 ]
  - # (3, 2)
    - [    -0.089979681322515,    -0.006992699784218,     0.000000004429735 ]
    - [    -0.006992699848172,    -0.080969680813498,    -0.000000000589194 ]
    - [     0.000000001442534,     0.000000004694477,    -0.077156459966470 ]
  - # (3, 3)
    - [     2.470718933224669,     0.249118310341783,     0.000000015818095 ]
    - [     0.249118310341783,     2.149733383167236,     0.000000009077371 ]
    - [     0.000000015818095,     0.000000009077371,     2.013885364376620 ]
  - # (3, 4)
    - [    -0.022285437707149,     0.001938091198788,    -0.000000001878911 ]
    - [     0.001938091018023,    -0.055551742544510,    -0.000000002773041 ]
    - [    -0.000000003251007,    -0.000000002058815,     0.009176150512717 ]
  - # (3, 5)
    - [    -0.028841703511820,     0.006025929783213,     0.019069607027056 ]
    - [     0.006025931613434,    -0.036606039522734,    -0.034969876531168 ]
    - [     0.019069606604814,    -0.034969871931687,    -0.039892070949877 ]
  - # (3, 6)
    - [    -0.019695572834789,    -0.015744195463776,     0.011354482108735 ]
    - [    -0.015744195208147,     0.000590603799522,     0.006191771796246 ]
    - [     0.011354480411523,     0.006191772777867,    -0.049556052946540 ]
  - # (3, 7)
    - [    -0.019695579178751,    -0.015744192162672,    -0.011354481237691 ]
    - [    -0.015744191672225,     0.000590607017592,    -0.006191773813914 ]
    - [    -0.011354482132843,    -0.006191770817061,    -0.049556054809189 ]
  - # (3, 8)
    - [    -0.028841706105695,     0.006025932854519,    -0.019069601009813 ]
    - [     0.006025931724558,    -0.036606036635918,     0.034969876353865 ]
    - [    -0.019069602772034,     0.034969877911266,    -0.039892070889329 ]
  - # (3, 9)
    - [     0.075618749774613,    -0.063249823320261,    -0.000000000346203 ]
    - [    -0.063249821649176,    -0.544825512296246,    -0.000000010459300 ]
    - [     0.000000000053976,    -0.000000024206084,     0.029493127733312 ]
  - # (3, 10)
    - [     0.226989997506748,     0.009961189911020,     0.000000003827011 ]
    - [     0.009961189911020,     0.214155141938981,     0.000000002538450 ]
    - [     0.000000003827011,     0.000000002538450,     0.208723148147666 ]
  - # (3, 11)
    - [    -0.142697568188186,    -0.077344528417891,     0.000000000902369 ]
    - [    -0.077344528481845,    -0.043040194048659,    -0.000000002512721 ]
    - [    -0.000000002084832,     0.000000002770951,    -0.000863048158087 ]
  - # (3, 12)
    - [    -0.420435199549106,     0.256329561935634,    -0.000000001833566 ]
    - [     0.256329560744735,    -0.048771556423063,     0.000000004862554 ]
    - [    -0.000000004080483,     0.000000007911221,     0.029493129003658 ]
  - # (3, 13)
    - [    -0.006851038964160,     0.014523274064156,     0.003086756077239 ]
    - [     0.014523272934196,    -0.025564075342106,    -0.005660486579000 ]
    - [     0.003086754315018,    -0.005660485021599,    -0.033483840361004 ]
  - # (3, 14)
    - [    -0.085552568516513,    -0.062736170363380,    -0.259031749481879 ]
    - [    -0.062736168937703,    -0.004717856966400,    -0.141253959771468 ]
    - [    -0.259031736901384,    -0.141253954093787,    -0.349443209417192 ]
  - # (3, 15)
    - [    -0.085552571175312,    -0.062736178850167,     0.259031740606396 ]
    - [    -0.062736180523199,    -0.004717864724718,     0.141253966453334 ]
    - [     0.259031739341684,     0.141253960147725,    -0.349443166924036 ]
  - # (3, 16)
    - [    -0.006851035287679,     0.014523270471967,    -0.003086748520026 ]
    - [     0.014523271972000,    -0.025564079353642,     0.005660488616606 ]
    - [    -0.003086748622119,     0.005660490705165,    -0.033483839968732 ]
  - # (3, 17)
    - [     0.007767358552459,     0.008857633808120,    -0.002808710118121 ]
    - [     0.008857632084877,    -0.003645576652913,     0.005150631274824 ]
    - [    -0.002808712523875,     0.005150632368038,    -0.008475781414503 ]
  - # (3, 18)
    - [    -0.247304269212783,    -0.147364442032623,    -0.413794928222342 ]
    - [    -0.147364438369466,    -0.057427174731630,    -0.225648678351773 ]
    - [    -0.433060504702580,    -0.236154494492831,    -0.652916470718477 ]
  - # (3, 19)
    - [    -0.247304271723586,    -0.147364455191307,     0.413794905764132 ]
    - [    -0.147364460673502,    -0.057427190313620,     0.225648685738204 ]
    - [     0.433060500843578,     0.236154498474759,    -0.652916401783159 ]
  - # (3, 20)
    - [     0.007767362732664,     0.008857628737754,     0.002808718413432 ]
    - [     0.008857631317438,    -0.003645580004850,    -0.005150628869550 ]
    - [     0.002808718538101,    -0.005150626054973,    -0.008475782294675 ]
  - # (3, 21)
    - [     0.003223612413243,    -0.113517897295661,    -0.000000004778561 ]
    - [    -0.135461813624439,    -0.983804422534705,    -0.000000019127014 ]
    - [    -0.000000007760376,    -0.000000043969739,     0.022932894890762 ]
  - # (3, 22)
    - [     0.078215153328300,     0.009407179984717,     0.000000004351655 ]
    - [     0.009407179597317,     0.066094132017264,     0.000000003490690 ]
    - [     0.000000004210849,     0.000000002119583,     0.060964248257413 ]
  - # (3, 23)
    - [    -0.566729539162795,    -0.275660502609367,    -0.000000007897667 ]
    - [    -0.275660502724631,    -0.211544731380559,    -0.000000008051904 ]
    - [    -0.000000011778525,    -0.000000001736814,    -0.061222860589939 ]
  - # (3, 24)
    - [    -0.807653798176782,     0.386940443507901,    -0.000000006875893 ]
    - [     0.408884360752274,    -0.172927001850142,     0.000000006701498 ]
    - [    -0.000000009425024,     0.000000009311446,     0.022932896486002 ]
  - # (4, 1)
    - [    -0.089979679724989,    -0.006992700591759,    -0.000000005658892 ]
    - [    -0.006992701265018,    -0.080969682106619,    -0.000000003860562 ]
    - [    -0.000000007114013,    -0.000000002549834,    -0.077156457907228 ]
  - # (4, 2)
    - [    -0.044029627416118,     0.015946636510519,    -0.000000002639647 ]
    - [     0.015946636627330,    -0.033807554153985,    -0.000000003060053 ]
    - [    -0.000000003660190,     0.000000000419084,     0.009176149921153 ]
  - # (4, 3)
    - [    -0.022285437707149,     0.001938091018023,    -0.000000003251007 ]
    - [     0.001938091198788,    -0.055551742544510,    -0.000000002058815 ]
    - [    -0.000000001878911,    -0.000000002773041,     0.009176150512717 ]
  - # (4, 4)
    - [     2.470718898762894,     0.249118330336353,     0.000000200496562 ]
    - [     0.249118330336353,     2.149733414849226,     0.000000108559153 ]
    - [     0.000000200496562,     0.000000108559153,     2.013885364573974 ]
  - # (4, 5)