# Thermal properties / unit cell (natom)

unit:
  temperature:   K
  free_energy:   kJ/mol
  entropy:       J/K/mol
  heat_capacity: J/K/mol

natom: 3    
cutoff_frequency: 0.00000
num_modes: 324000
num_integrated_modes: 318402

zero_point_energy:      11.5080011

thermal_properties:
- temperature:         0.0000000
  free_energy:        11.5080011
  entropy:             0.0000000
  heat_capacity:       0.0000000
  energy:             11.5080011

- temperature:        10.0000000
  free_energy:        11.5053648
  entropy:             0.8521702
  heat_capacity:       1.9738384
  energy:             11.5138865

- temperature:        20.0000000
  free_energy:        11.4831173
  entropy:             3.9203131
  heat_capacity:       7.7944589
  energy:             11.5615236

- temperature:        30.0000000
  free_energy:        11.4231919
  entropy:             8.1388383
  heat_capacity:      13.0790894
  energy:             11.6673571

- temperature:        40.0000000
  free_energy:        11.3201664
  entropy:            12.4375811
  heat_capacity:      16.7856448
  energy:             11.8176697

- temperature:        50.0000000
  free_energy:        11.1752197
  entropy:            16.5122492
  heat_capacity:      19.8068996
  energy:             12.0008322

- temperature:        60.0000000
  free_energy:        10.9905871
  entropy:            20.3884260
  heat_capacity:      22.8365359
  energy:             12.2138927

- temperature:        70.0000000
  free_energy:        10.7678289
  entropy:            24.1501985
  heat_capacity:      26.0915340
  energy:             12.4583428

- temperature:        80.0000000
  free_energy:        10.5077630
  entropy:            27.8568664
  heat_capacity:      29.5208254
  energy:             12.7363123

- temperature:        90.0000000
  free_energy:        10.2107859
  entropy:            31.5344871
  heat_capacity:      32.9897394
  energy:             13.0488898

- temperature:       100.0000000
  free_energy:         9.8771572
  entropy:            35.1865368
  heat_capacity:      36.3711484
  energy:             13.3958109

- temperature:       110.0000000
  free_energy:         9.5071668
  entropy:            38.8049978
  heat_capacity:      39.5749900
  energy:             13.7757165

- temperature:       120.0000000
  free_energy:         9.1012096
  entropy:            42.3777739
  heat_capacity:      42.5493462
  energy:             14.1865425

- temperature:       130.0000000
  free_energy:         8.6598041
  entropy:            45.8927545
  heat_capacity:      45.2720058
  energy:             14.6258622

- temperature:       140.0000000
  free_energy:         8.1835817
  entropy:            49.3396688
  heat_capacity:      47.7408846
  energy:             15.0911353

- temperature:       150.0000000
  free_energy:         7.6732640
  entropy:            52.7106883
  heat_capacity:      49.9661805
  energy:             15.5798673

- temperature:       160.0000000
  free_energy:         7.1296392
  entropy:            56.0003982
  heat_capacity:      51.9647625
  energy:             16.0897029

- temperature:       170.0000000
  free_energy:         6.5535383
  entropy:            59.2054976
  heat_capacity:      53.7564732
  energy:             16.6184729

- temperature:       180.0000000
  free_energy:         5.9458166
  entropy:            62.3244147
  heat_capacity:      55.3618389
  energy:             17.1642113

- temperature:       190.0000000
  free_energy:         5.3073381
  entropy:            65.3569307
  heat_capacity:      56.8007428
  energy:             17.7251549

- temperature:       200.0000000
  free_energy:         4.6389634
  entropy:            68.3038490
  heat_capacity:      58.0917204
  energy:             18.2997332

- temperature:       210.0000000
  free_energy:         3.9415413
  entropy:            71.1667207
  heat_capacity:      59.2516430
  energy:             18.8865527

- temperature:       220.0000000
  free_energy:         3.2159023
  entropy:            73.9476253
  heat_capacity:      60.2956327
  energy:             19.4843798

- temperature:       230.0000000
  free_energy:         2.4628540
  entropy:            76.6489994
  heat_capacity:      61.2371090
  energy:             20.0921238

- temperature:       240.0000000
  free_energy:         1.6831785
  entropy:            79.2735057
  heat_capacity:      62.0879035
  energy:             20.7088199

- temperature:       250.0000000
  free_energy:         0.8776308
  entropy:            81.8239344
  heat_capacity:      62.8584070
  energy:             21.3336144

- temperature:       260.0000000
  free_energy:         0.0469373
  entropy:            84.3031292
  heat_capacity:      63.5577235
  energy:             21.9657509

- temperature:       270.0000000
  free_energy:        -0.8082038
  entropy:            86.7139337
  heat_capacity:      64.1938216
  energy:             22.6045582

- temperature:       280.0000000
  free_energy:        -1.6871228
  entropy:            89.0591525
  heat_capacity:      64.7736749
  energy:             23.2494399

- temperature:       290.0000000
  free_energy:        -2.5891774
  entropy:            91.3415245
  heat_capacity:      65.3033893
  energy:             23.8998647

- temperature:       300.0000000
  free_energy:        -3.5137526
  entropy:            93.5637038
  heat_capacity:      65.7883161
  energy:             24.5553585

- temperature:       310.0000000
  free_energy:        -4.4602594
  entropy:            95.7282478
  heat_capacity:      66.2331513
  energy:             25.2154974

- temperature:       320.0000000
  free_energy:        -5.4281337
  entropy:            97.8376105
  heat_capacity:      66.6420228
  energy:             25.8799017

- temperature:       330.0000000
  free_energy:        -6.4168355
  entropy:            99.8941384
  heat_capacity:      67.0185647
  energy:             26.5482302

- temperature:       340.0000000
  free_energy:        -7.4258478
  entropy:           101.9000698
  heat_capacity:      67.3659829
  energy:             27.2201760

- temperature:       350.0000000
  free_energy:        -8.4546753
  entropy:           103.8575360
  heat_capacity:      67.6871109
  energy:             27.8954622

- temperature:       360.0000000
  free_energy:        -9.5028437
  entropy:           105.7685629
  heat_capacity:      67.9844582
  energy:             28.5738389

- temperature:       370.0000000
  free_energy:       -10.5698982
  entropy:           107.6350752
  heat_capacity:      68.2602514
  energy:             29.2550796

- temperature:       380.0000000
  free_energy:       -11.6554029
  entropy:           109.4588992
  heat_capacity:      68.5164708
  energy:             29.9389787

- temperature:       390.0000000
  free_energy:       -12.7589397
  entropy:           111.2417676
  heat_capacity:      68.7548806
  energy:             30.6253497

- temperature:       400.0000000
  free_energy:       -13.8801073
  entropy:           112.9853238
  heat_capacity:      68.9770562
  energy:             31.3140223

- temperature:       410.0000000
  free_energy:       -15.0185203
  entropy:           114.6911262
  heat_capacity:      69.1844068
  energy:             32.0048414

- temperature:       420.0000000
  free_energy:       -16.1738089
  entropy:           116.3606526
  heat_capacity:      69.3781954
  energy:             32.6976652

- temperature:       430.0000000
  free_energy:       -17.3456172
  entropy:           117.9953047
  heat_capacity:      69.5595565
  energy:             33.3923639

- temperature:       440.0000000
  free_energy:       -18.5336032
  entropy:           119.5964125
  heat_capacity:      69.7295108
  energy:             34.0888183

- temperature:       450.0000000
  free_energy:       -19.7374378
  entropy:           121.1652377
  heat_capacity:      69.8889783
  energy:             34.7869191

- temperature:       460.0000000
  free_energy:       -20.9568043
  entropy:           122.7029783
  heat_capacity:      70.0387900
  energy:             35.4865657

- temperature:       470.0000000
  free_energy:       -22.1913976
  entropy:           124.2107720
  heat_capacity:      70.1796975
  energy:             36.1876653

- temperature:       480.0000000
  free_energy:       -23.4409235
  entropy:           125.6896996
  heat_capacity:      70.3123819
  energy:             36.8901323

- temperature:       490.0000000
  free_energy:       -24.7050988
  entropy:           127.1407884
  heat_capacity:      70.4374615
  energy:             37.5938876

- temperature:       500.0000000
  free_energy:       -25.9836498
  entropy:           128.5650156
  heat_capacity:      70.5554984
  energy:             38.2988580

- temperature:       510.0000000
  free_energy:       -27.2763126
  entropy:           129.9633106
  heat_capacity:      70.6670046
  energy:             39.0049758

- temperature:       520.0000000
  free_energy:       -28.5828325
  entropy:           131.3365584
  heat_capacity:      70.7724469
  energy:             39.7121779

- temperature:       530.0000000
  free_energy:       -29.9029631
  entropy:           132.6856020
  heat_capacity:      70.8722517
  energy:             40.4204059

- temperature:       540.0000000
  free_energy:       -31.2364665
  entropy:           134.0112444
  heat_capacity:      70.9668091
  energy:             41.1296054

- temperature:       550.0000000
  free_energy:       -32.5831126
  entropy:           135.3142516
  heat_capacity:      71.0564765
  energy:             41.8397258

- temperature:       560.0000000
  free_energy:       -33.9426786
  entropy:           136.5953541
  heat_capacity:      71.1415815
  energy:             42.5507198

- temperature:       570.0000000
  free_energy:       -35.3149490
  entropy:           137.8552495
  heat_capacity:      71.2224253
  energy:             43.2625432

- temperature:       580.0000000
  free_energy:       -36.6997151
  entropy:           139.0946036
  heat_capacity:      71.2992849
  energy:             43.9751550

- temperature:       590.0000000
  free_energy:       -38.0967747
  entropy:           140.3140529
  heat_capacity:      71.3724151
  energy:             44.6885165

- temperature:       600.0000000
  free_energy:       -39.5059318
  entropy:           141.5142058
  heat_capacity:      71.4420512
  energy:             45.4025917

- temperature:       610.0000000
  free_energy:       -40.9269964
  entropy:           142.6956443
  heat_capacity:      71.5084101
  energy:             46.1173466

- temperature:       620.0000000
  free_energy:       -42.3597842
  entropy:           143.8589255
  heat_capacity:      71.5716927
  energy:             46.8327496

- temperature:       630.0000000
  free_energy:       -43.8041162
  entropy:           145.0045826
  heat_capacity:      71.6320844
  energy:             47.5487708

- temperature:       640.0000000
  free_energy:       -45.2598188
  entropy:           146.1331266
  heat_capacity:      71.6897573
  energy:             48.2653822

- temperature:       650.0000000
  free_energy:       -46.7267233
  entropy:           147.2450473
  heat_capacity:      71.7448708
  energy:             48.9825574

- temperature:       660.0000000
  free_energy:       -48.2046659
  entropy:           148.3408144
  heat_capacity:      71.7975730
  energy:             49.7002716

- temperature:       670.0000000
  free_energy:       -49.6934873
  entropy:           149.4208785
  heat_capacity:      71.8480015
  energy:             50.4185013

- temperature:       680.0000000
  free_energy:       -51.1930326
  entropy:           150.4856721
  heat_capacity:      71.8962843
  energy:             51.1372245

- temperature:       690.0000000
  free_energy:       -52.7031512
  entropy:           151.5356108
  heat_capacity:      71.9425406
  energy:             51.8564203

- temperature:       700.0000000
  free_energy:       -54.2236966
  entropy:           152.5710936
  heat_capacity:      71.9868813
  energy:             52.5760689

- temperature:       710.0000000
  free_energy:       -55.7545261
  entropy:           153.5925042
  heat_capacity:      72.0294101
  energy:             53.2961518

- temperature:       720.0000000
  free_energy:       -57.2955010
  entropy:           154.6002117
  heat_capacity:      72.0702239
  energy:             54.0166514

- temperature:       730.0000000
  free_energy:       -58.8464859
  entropy:           155.5945710
  heat_capacity:      72.1094129
  energy:             54.7375509

- temperature:       740.0000000
  free_energy:       -60.4073491
  entropy:           156.5759238
  heat_capacity:      72.1470618
  energy:             55.4588345

- temperature:       750.0000000
  free_energy:       -61.9779621
  entropy:           157.5445992
  heat_capacity:      72.1832497
  energy:             56.1804873

- temperature:       760.0000000
  free_energy:       -63.5581998
  entropy:           158.5009141
  heat_capacity:      72.2180509
  energy:             56.9024949

- temperature:       770.0000000
  free_energy:       -65.1479402
  entropy:           159.4451742
  heat_capacity:      72.2515348
  energy:             57.6248439

- temperature:       780.0000000
  free_energy:       -66.7470641
  entropy:           160.3776738
  heat_capacity:      72.2837669
  energy:             58.3475214

- temperature:       790.0000000
  free_energy:       -68.3554554
  entropy:           161.2986971
  heat_capacity:      72.3148083
  energy:             59.0705153

- temperature:       800.0000000
  free_energy:       -69.9730007
  entropy:           162.2085182
  heat_capacity:      72.3447168
  energy:             59.7938138

- temperature:       810.0000000
  free_energy:       -71.5995893
  entropy:           163.1074017
  heat_capacity:      72.3735464
  energy:             60.5174060

- temperature:       820.0000000
  free_energy:       -73.2351132
  entropy:           163.9956030
  heat_capacity:      72.4013482
  energy:             61.2412813

- temperature:       830.0000000
  free_energy:       -74.8794666
  entropy:           164.8733691
  heat_capacity:      72.4281703
  energy:             61.9654297

- temperature:       840.0000000
  free_energy:       -76.5325466
  entropy:           165.7409383
  heat_capacity:      72.4540580
  energy:             62.6898416

- temperature:       850.0000000
  free_energy:       -78.1942522
  entropy:           166.5985412
  heat_capacity:      72.4790539
  energy:             63.4145079

- temperature:       860.0000000
  free_energy:       -79.8644849
  entropy:           167.4464009
  heat_capacity:      72.5031983
  energy:             64.1394198

- temperature:       870.0000000
  free_energy:       -81.5431484
  entropy:           168.2847328
  heat_capacity:      72.5265294
  energy:             64.8645692

- temperature:       880.0000000
  free_energy:       -83.2301485
  entropy:           169.1137458
  heat_capacity:      72.5490830
  energy:             65.5899478

- temperature:       890.0000000
  free_energy:       -84.9253929
  entropy:           169.9336419
  heat_capacity:      72.5708933
  energy:             66.3155483

- temperature:       900.0000000
  free_energy:       -86.6287916
  entropy:           170.7446166
  heat_capacity:      72.5919923
  energy:             67.0413633

- temperature:       910.0000000
  free_energy:       -88.3402562
  entropy:           171.5468594
  heat_capacity:      72.6124106
  energy:             67.7673859

- temperature:       920.0000000
  free_energy:       -90.0597003
  entropy:           172.3405540
  heat_capacity:      72.6321771
  energy:             68.4936094

- temperature:       930.0000000
  free_energy:       -91.7870394
  entropy:           173.1258782
  heat_capacity:      72.6513189
  energy:             69.2200274

- temperature:       940.0000000
  free_energy:       -93.5221905
  entropy:           173.9030046
  heat_capacity:      72.6698622
  energy:             69.9466338

- temperature:       950.0000000
  free_energy:       -95.2650727
  entropy:           174.6721004
  heat_capacity:      72.6878315
  energy:             70.6734227

- temperature:       960.0000000
  free_energy:       -97.0156063
  entropy:           175.4333280
  heat_capacity:      72.7052502
  energy:             71.4003886

- temperature:       970.0000000
  free_energy:       -98.7737135
  entropy:           176.1868448
  heat_capacity:      72.7221404
  energy:             72.1275259

- temperature:       980.0000000
  free_energy:      -100.5393180
  entropy:           176.9328038
  heat_capacity:      72.7385233
  energy:             72.8548297

- temperature:       990.0000000
  free_energy:      -102.3123449
  entropy:           177.6713532
  heat_capacity:      72.7544189
  energy:             73.5822948

- temperature:      1000.0000000
  free_energy:      -104.0927209
  entropy:           178.4026374
  heat_capacity:      72.7698463
  energy:             74.3099165
