phonopy:
  version: "2.37.1"
  frequency_unit_conversion_factor: 15.633302
  symmetry_tolerance: 1.00000e-05

space_group:
  type: "P1"
  number: 1
  Hall_symbol: "P 1"

primitive_matrix:
- [ -1.000000000000000, -1.000000000000000,  0.000000000000000 ]
- [  0.000000000000000,  1.000000000000000,  0.000000000000000 ]
- [  0.000000000000000,  0.000000000000000, -1.000000000000000 ]

supercell_matrix:
- [   3,   0,   0 ]
- [   0,   2,   0 ]
- [   0,   0,   1 ]

primitive_cell:
  lattice:
  - [    -4.436384665666131,     0.000000000000000,     0.000000000000000 ] # a
  - [    -2.217770931994604,     5.113484348465775,     0.000000000000000 ] # b
  - [    -2.216136266982654,    -0.450402550378727,    -9.876376528048143 ] # c
  points:
  - symbol: Li # 1
    coordinates: [  0.945367475750958,  0.660975109283105,  0.316610162972561 ]
    mass: 6.940000
  - symbol: Li # 2
    coordinates: [  0.270271181177476,  0.002423958881951,  0.325025146121457 ]
    mass: 6.940000
  - symbol: Li # 3
    coordinates: [  0.972231327388914,  0.362487125375705,  0.560816502731812 ]
    mass: 6.940000
  - symbol: Li # 4
    coordinates: [  0.242623057118479,  0.306827892663948,  0.077226593220531 ]
    mass: 6.940000
  - symbol: Li # 5
    coordinates: [  0.606142269625360,  0.841957244774956,  0.814322510199951 ]
    mass: 6.940000
  - symbol: Ga # 6
    coordinates: [  0.669951724136967,  0.983628343704404,  0.544277346148495 ]
    mass: 69.723000
  - symbol: Ga # 7
    coordinates: [  0.928544888091098,  0.927740846607978,  0.084465690546123 ]
    mass: 69.723000
  - symbol: Ga # 8
    coordinates: [  0.290692958763120,  0.728261032240544,  0.558070536094091 ]
    mass: 69.723000
  - symbol: Ga # 9
    coordinates: [  0.545765857872865,  0.685908837982916,  0.091732566857040 ]
    mass: 69.723000
  - symbol: Ga # 10
    coordinates: [  0.384756859718779,  0.367331539170753,  0.731314456488402 ]
    mass: 69.723000
  - symbol: Sn # 11
    coordinates: [  0.847574937757577,  0.289829385451537,  0.883681184653411 ]
    mass: 118.710000
  - symbol: Sn # 12
    coordinates: [  0.609327176523062,  0.331738975257876,  0.317749671893984 ]
    mass: 118.710000
  reciprocal_lattice: # without 2pi
  - [    -0.225408767580313,    -0.097762108669861,     0.055037274678847 ] # a*
  - [    -0.000000000000000,     0.195561369088777,    -0.008918386125012 ] # b*
  - [    -0.000000000000000,     0.000000000000000,    -0.101251708778020 ] # c*

unit_cell:
  lattice:
  - [     4.436384665666131,     0.000000000000000,     0.000000000000000 ] # a
  - [     2.218613733671526,     5.113484348465776,     0.000000000000000 ] # b
  - [     2.216136266982654,     0.450402550378727,     9.876376528048143 ] # c
  points:
  - symbol: Li # 1
    coordinates: [  0.393657414965938,  0.660975109283105,  0.683389837027439 ]
    mass: 6.940000
    reduced_to: 1
  - symbol: Li # 2
    coordinates: [  0.727304859940573,  0.002423958881951,  0.674974853878543 ]
    mass: 6.940000
    reduced_to: 2
  - symbol: Li # 3
    coordinates: [  0.665281547235381,  0.362487125375705,  0.439183497268188 ]
    mass: 6.940000
    reduced_to: 3
  - symbol: Li # 4
    coordinates: [  0.450549050217573,  0.306827892663948,  0.922773406779469 ]
    mass: 6.940000
    reduced_to: 4
  - symbol: Li # 5
    coordinates: [  0.551900485599684,  0.841957244774956,  0.185677489800049 ]
    mass: 6.940000
    reduced_to: 5
  - symbol: Ga # 6
    coordinates: [  0.346419932158629,  0.983628343704404,  0.455722653851505 ]
    mass: 69.723000
    reduced_to: 6
  - symbol: Ga # 7
    coordinates: [  0.143714265300924,  0.927740846607978,  0.915534309453877 ]
    mass: 69.723000
    reduced_to: 7
  - symbol: Ga # 8
    coordinates: [  0.981046008996336,  0.728261032240544,  0.441929463905909 ]
    mass: 69.723000
    reduced_to: 8
  - symbol: Ga # 9
    coordinates: [  0.768325304144219,  0.685908837982916,  0.908267433142960 ]
    mass: 69.723000
    reduced_to: 9
  - symbol: Ga # 10
    coordinates: [  0.247911601110468,  0.367331539170753,  0.268685543511598 ]
    mass: 69.723000
    reduced_to: 10
  - symbol: Sn # 11
    coordinates: [  0.862595676790886,  0.289829385451537,  0.116318815346589 ]
    mass: 118.710000
    reduced_to: 11
  - symbol: Sn # 12
    coordinates: [  0.058933848219062,  0.331738975257876,  0.682250328106016 ]
    mass: 118.710000
    reduced_to: 12

supercell:
  lattice:
  - [    13.309153996998392,     0.000000000000000,     0.000000000000000 ] # a
  - [     4.437227467343051,    10.226968696931552,     0.000000000000000 ] # b
  - [     2.216136266982654,     0.450402550378727,     9.876376528048143 ] # c
  points:
  - symbol: Li # 1
    coordinates: [  0.131219138321979,  0.330487554641552,  0.683389837027439 ]
    mass: 6.940000
    reduced_to: 1
  - symbol: Li # 2
    coordinates: [  0.464552471655312,  0.330487554641552,  0.683389837027439 ]
    mass: 6.940000
    reduced_to: 1
  - symbol: Li # 3
    coordinates: [  0.797885804988646,  0.330487554641552,  0.683389837027439 ]
    mass: 6.940000
    reduced_to: 1
  - symbol: Li # 4
    coordinates: [  0.131219138321979,  0.830487554641552,  0.683389837027439 ]
    mass: 6.940000
    reduced_to: 1
  - symbol: Li # 5
    coordinates: [  0.464552471655312,  0.830487554641552,  0.683389837027439 ]
    mass: 6.940000
    reduced_to: 1
  - symbol: Li # 6
    coordinates: [  0.797885804988646,  0.830487554641552,  0.683389837027439 ]
    mass: 6.940000
    reduced_to: 1
  - symbol: Li # 7
    coordinates: [  0.242434953313524,  0.001211979440976,  0.674974853878543 ]
    mass: 6.940000
    reduced_to: 7
  - symbol: Li # 8
    coordinates: [  0.575768286646858,  0.001211979440976,  0.674974853878543 ]
    mass: 6.940000
    reduced_to: 7
  - symbol: Li # 9
    coordinates: [  0.909101619980191,  0.001211979440976,  0.674974853878543 ]
    mass: 6.940000
    reduced_to: 7
  - symbol: Li # 10
    coordinates: [  0.242434953313524,  0.501211979440976,  0.674974853878543 ]
    mass: 6.940000
    reduced_to: 7
  - symbol: Li # 11
    coordinates: [  0.575768286646858,  0.501211979440976,  0.674974853878543 ]
    mass: 6.940000
    reduced_to: 7
  - symbol: Li # 12
    coordinates: [  0.909101619980191,  0.501211979440976,  0.674974853878543 ]
    mass: 6.940000
    reduced_to: 7
  - symbol: Li # 13
    coordinates: [  0.221760515745127,  0.181243562687853,  0.439183497268188 ]
    mass: 6.940000
    reduced_to: 13
  - symbol: Li # 14
    coordinates: [  0.555093849078460,  0.181243562687853,  0.439183497268188 ]
    mass: 6.940000
    reduced_to: 13
  - symbol: Li # 15
    coordinates: [  0.888427182411794,  0.181243562687853,  0.439183497268188 ]
    mass: 6.940000
    reduced_to: 13
  - symbol: Li # 16
    coordinates: [  0.221760515745127,  0.681243562687853,  0.439183497268188 ]
    mass: 6.940000
    reduced_to: 13
  - symbol: Li # 17
    coordinates: [  0.555093849078460,  0.681243562687853,  0.439183497268188 ]
    mass: 6.940000
    reduced_to: 13
  - symbol: Li # 18
    coordinates: [  0.888427182411794,  0.681243562687853,  0.439183497268188 ]
    mass: 6.940000
    reduced_to: 13
  - symbol: Li # 19
    coordinates: [  0.150183016739191,  0.153413946331974,  0.922773406779469 ]
    mass: 6.940000
    reduced_to: 19
  - symbol: Li # 20
    coordinates: [  0.483516350072524,  0.153413946331974,  0.922773406779469 ]
    mass: 6.940000
    reduced_to: 19
  - symbol: Li # 21
    coordinates: [  0.816849683405858,  0.153413946331974,  0.922773406779469 ]
    mass: 6.940000
    reduced_to: 19
  - symbol: Li # 22
    coordinates: [  0.150183016739191,  0.653413946331974,  0.922773406779469 ]
    mass: 6.940000
    reduced_to: 19
  - symbol: Li # 23
    coordinates: [  0.483516350072524,  0.653413946331974,  0.922773406779469 ]
    mass: 6.940000
    reduced_to: 19
  - symbol: Li # 24
    coordinates: [  0.816849683405858,  0.653413946331974,  0.922773406779469 ]
    mass: 6.940000
    reduced_to: 19
  - symbol: Li # 25
    coordinates: [  0.183966828533228,  0.420978622387478,  0.185677489800049 ]
    mass: 6.940000
    reduced_to: 25
  - symbol: Li # 26
    coordinates: [  0.517300161866561,  0.420978622387478,  0.185677489800049 ]
    mass: 6.940000
    reduced_to: 25
  - symbol: Li # 27
    coordinates: [  0.850633495199895,  0.420978622387478,  0.185677489800049 ]
    mass: 6.940000
    reduced_to: 25
  - symbol: Li # 28
    coordinates: [  0.183966828533228,  0.920978622387478,  0.185677489800049 ]
    mass: 6.940000
    reduced_to: 25
  - symbol: Li # 29
    coordinates: [  0.517300161866561,  0.920978622387478,  0.185677489800049 ]
    mass: 6.940000
    reduced_to: 25
  - symbol: Li # 30
    coordinates: [  0.850633495199895,  0.920978622387478,  0.185677489800049 ]
    mass: 6.940000
    reduced_to: 25
  - symbol: Ga # 31
    coordinates: [  0.115473310719543,  0.491814171852202,  0.455722653851505 ]
    mass: 69.723000
    reduced_to: 31
  - symbol: Ga # 32
    coordinates: [  0.448806644052876,  0.491814171852202,  0.455722653851505 ]
    mass: 69.723000
    reduced_to: 31
  - symbol: Ga # 33
    coordinates: [  0.782139977386210,  0.491814171852202,  0.455722653851505 ]
    mass: 69.723000
    reduced_to: 31
  - symbol: Ga # 34
    coordinates: [  0.115473310719543,  0.991814171852202,  0.455722653851505 ]
    mass: 69.723000
    reduced_to: 31
  - symbol: Ga # 35
    coordinates: [  0.448806644052876,  0.991814171852202,  0.455722653851505 ]
    mass: 69.723000
    reduced_to: 31
  - symbol: Ga # 36
    coordinates: [  0.782139977386210,  0.991814171852202,  0.455722653851505 ]
    mass: 69.723000
    reduced_to: 31
  - symbol: Ga # 37
    coordinates: [  0.047904755100308,  0.463870423303989,  0.915534309453877 ]
    mass: 69.723000
    reduced_to: 37
  - symbol: Ga # 38
    coordinates: [  0.381238088433641,  0.463870423303989,  0.915534309453877 ]
    mass: 69.723000
    reduced_to: 37
  - symbol: Ga # 39
    coordinates: [  0.714571421766975,  0.463870423303989,  0.915534309453877 ]
    mass: 69.723000
    reduced_to: 37
  - symbol: Ga # 40
    coordinates: [  0.047904755100308,  0.963870423303989,  0.915534309453877 ]
    mass: 69.723000
    reduced_to: 37
  - symbol: Ga # 41
    coordinates: [  0.381238088433641,  0.963870423303989,  0.915534309453877 ]
    mass: 69.723000
    reduced_to: 37
  - symbol: Ga # 42
    coordinates: [  0.714571421766975,  0.963870423303989,  0.915534309453877 ]
    mass: 69.723000
    reduced_to: 37
  - symbol: Ga # 43
    coordinates: [  0.327015336332112,  0.364130516120272,  0.441929463905909 ]
    mass: 69.723000
    reduced_to: 43
  - symbol: Ga # 44
    coordinates: [  0.660348669665445,  0.364130516120272,  0.441929463905909 ]
    mass: 69.723000
    reduced_to: 43
  - symbol: Ga # 45
    coordinates: [  0.993682002998779,  0.364130516120272,  0.441929463905909 ]
    mass: 69.723000
    reduced_to: 43
  - symbol: Ga # 46
    coordinates: [  0.327015336332112,  0.864130516120272,  0.441929463905909 ]
    mass: 69.723000
    reduced_to: 43
  - symbol: Ga # 47
    coordinates: [  0.660348669665445,  0.864130516120272,  0.441929463905909 ]
    mass: 69.723000
    reduced_to: 43
  - symbol: Ga # 48
    coordinates: [  0.993682002998779,  0.864130516120272,  0.441929463905909 ]
    mass: 69.723000
    reduced_to: 43
  - symbol: Ga # 49
    coordinates: [  0.256108434714740,  0.342954418991458,  0.908267433142960 ]
    mass: 69.723000
    reduced_to: 49
  - symbol: Ga # 50
    coordinates: [  0.589441768048073,  0.342954418991458,  0.908267433142960 ]
    mass: 69.723000
    reduced_to: 49
  - symbol: Ga # 51
    coordinates: [  0.922775101381406,  0.342954418991458,  0.908267433142960 ]
    mass: 69.723000
    reduced_to: 49
  - symbol: Ga # 52
    coordinates: [  0.256108434714740,  0.842954418991458,  0.908267433142960 ]
    mass: 69.723000
    reduced_to: 49
  - symbol: Ga # 53
    coordinates: [  0.589441768048073,  0.842954418991458,  0.908267433142960 ]
    mass: 69.723000
    reduced_to: 49
  - symbol: Ga # 54
    coordinates: [  0.922775101381406,  0.842954418991458,  0.908267433142960 ]
    mass: 69.723000
    reduced_to: 49
  - symbol: Ga # 55
    coordinates: [  0.082637200370156,  0.183665769585377,  0.268685543511598 ]
    mass: 69.723000
    reduced_to: 55
  - symbol: Ga # 56
    coordinates: [  0.415970533703489,  0.183665769585377,  0.268685543511598 ]
    mass: 69.723000
    reduced_to: 55
  - symbol: Ga # 57
    coordinates: [  0.749303867036823,  0.183665769585377,  0.268685543511598 ]
    mass: 69.723000
    reduced_to: 55
  - symbol: Ga # 58
    coordinates: [  0.082637200370156,  0.683665769585377,  0.268685543511598 ]
    mass: 69.723000
    reduced_to: 55
  - symbol: Ga # 59
    coordinates: [  0.415970533703489,  0.683665769585377,  0.268685543511598 ]
    mass: 69.723000
    reduced_to: 55
  - symbol: Ga # 60
    coordinates: [  0.749303867036823,  0.683665769585377,  0.268685543511598 ]
    mass: 69.723000
    reduced_to: 55
  - symbol: Sn # 61
    coordinates: [  0.287531892263629,  0.144914692725768,  0.116318815346589 ]
    mass: 118.710000
    reduced_to: 61
  - symbol: Sn # 62
    coordinates: [  0.620865225596962,  0.144914692725768,  0.116318815346589 ]
    mass: 118.710000
    reduced_to: 61
  - symbol: Sn # 63
    coordinates: [  0.954198558930295,  0.144914692725768,  0.116318815346589 ]
    mass: 118.710000
    reduced_to: 61
  - symbol: Sn # 64
    coordinates: [  0.287531892263629,  0.644914692725768,  0.116318815346589 ]
    mass: 118.710000
    reduced_to: 61
  - symbol: Sn # 65
    coordinates: [  0.620865225596962,  0.644914692725768,  0.116318815346589 ]
    mass: 118.710000
    reduced_to: 61
  - symbol: Sn # 66
    coordinates: [  0.954198558930295,  0.644914692725768,  0.116318815346589 ]
    mass: 118.710000
    reduced_to: 61
  - symbol: Sn # 67
    coordinates: [  0.019644616073021,  0.165869487628938,  0.682250328106016 ]
    mass: 118.710000
    reduced_to: 67
  - symbol: Sn # 68
    coordinates: [  0.352977949406354,  0.165869487628938,  0.682250328106016 ]
    mass: 118.710000
    reduced_to: 67
  - symbol: Sn # 69
    coordinates: [  0.686311282739687,  0.165869487628938,  0.682250328106016 ]
    mass: 118.710000
    reduced_to: 67
  - symbol: Sn # 70
    coordinates: [  0.019644616073021,  0.665869487628938,  0.682250328106016 ]
    mass: 118.710000
    reduced_to: 67
  - symbol: Sn # 71
    coordinates: [  0.352977949406354,  0.665869487628938,  0.682250328106016 ]
    mass: 118.710000
    reduced_to: 67
  - symbol: Sn # 72
    coordinates: [  0.686311282739687,  0.665869487628938,  0.682250328106016 ]
    mass: 118.710000
    reduced_to: 67

displacements:
- atom:    1
  displacement:
    [   0.0100000000000000,  0.0000000000000000,  0.0000000000000000 ]
  forces:
  - [  -0.0244334693998098,  0.0579760968685150,  0.0093200840055943 ]
  - [   0.0013401691103354,  0.0584814362227917,  0.0093727810308337 ]
  - [   0.0013422544579953,  0.0571285337209702,  0.0093377334997058 ]
  - [   0.0010096132755280,  0.0577186234295368,  0.0093839177861810 ]
  - [   0.0009454265236855,  0.0578407309949398,  0.0093246363103390 ]
  - [   0.0009439960122108,  0.0578548721969128,  0.0093586090952158 ]
  - [  -0.0009256690973416, -0.0746623501181602, -0.0073514534160495 ]
  - [  -0.0012324941344559, -0.0744064897298813, -0.0073771970346570 ]
  - [  -0.0012252478627488, -0.0749456882476807, -0.0073230648413301 ]
  - [   0.0031435796990991, -0.0714573562145233, -0.0074082538485527 ]
  - [  -0.0007588285952806, -0.0746582895517349, -0.0073492703959346 ]
  - [   0.0030915215611458, -0.0778587162494659, -0.0072887092828751 ]
  - [  -0.0006433678790927, -0.0073129585944116, -0.0618307888507843 ]
  - [  -0.0007212115451694, -0.0072801765054464, -0.0618159286677837 ]
  - [  -0.0007168427109718, -0.0073482366278768, -0.0618385300040245 ]
  - [  -0.0004211058840156, -0.0072948983870447, -0.0617937073111534 ]
  - [  -0.0005157049745321, -0.0073084309697151, -0.0618183687329292 ]
  - [  -0.0004317334387451, -0.0073450664058328, -0.0618775300681591 ]
  - [   0.0012167412787676, -0.0231071561574936, -0.0786983519792557 ]
  - [   0.0013389624655247, -0.0230166725814342, -0.0786803439259529 ]
  - [   0.0013374546542764, -0.0232117511332035, -0.0787127390503883 ]
  - [   0.0014004287077114, -0.0232048369944096, -0.0787633508443832 ]
  - [   0.0014368474949151, -0.0230994895100594, -0.0787007361650467 ]
  - [   0.0013832200784236, -0.0230429209768772, -0.0786272883415222 ]
  - [   0.0000193081796169,  0.0416796840727329,  0.0221181679517031 ]
  - [   0.0001134816557169,  0.0417425148189068,  0.0220897514373064 ]
  - [   0.0000726077705622,  0.0417456030845642,  0.0222879350185394 ]
  - [   0.0000559146501473,  0.0417278483510017,  0.0221718624234200 ]
  - [   0.0000331296978402,  0.0417206771671772,  0.0221532098948956 ]
  - [   0.0000327636334987,  0.0417211875319481,  0.0221646893769503 ]
  - [  -0.0002756323665380,  0.0127533748745918,  0.0887406170368195 ]
  - [   0.0004194025241304,  0.0126340724527836,  0.0887009650468826 ]
  - [   0.0004126438871026,  0.0128800757229328,  0.0887107700109482 ]
  - [   0.0006384587031789,  0.0132360644638538,  0.0891879796981812 ]
  - [   0.0006587841780856,  0.0123082809150219,  0.0882399678230286 ]
  - [   0.0006226197583601,  0.0127591975033283,  0.0887120515108109 ]
  - [   0.0005797895719297,  0.0337507314980030, -0.0169523451477289 ]
  - [   0.0008869316079654,  0.0335048958659172, -0.0170058384537697 ]
  - [   0.0008773584850132,  0.0340243019163609, -0.0168441440910101 ]
  - [   0.0013385652564466,  0.0341962948441505, -0.0174244791269302 ]
  - [   0.0013587239664048,  0.0333474390208721, -0.0164413154125214 ]
  - [   0.0013413090491667,  0.0337581299245358, -0.0169257484376431 ]
  - [  -0.0007447001989931,  0.0149212367832661, -0.0061412248760462 ]
  - [  -0.0011568429181352,  0.0146291544660926, -0.0060457978397608 ]
  - [  -0.0007543705287389,  0.0143223097547889, -0.0059397071599960 ]
  - [  -0.0006906026974320,  0.0145915821194649, -0.0060002729296684 ]
  - [  -0.0012222273508087,  0.0147750228643417, -0.0060477256774902 ]
  - [  -0.0012180991470814,  0.0145119428634644, -0.0060807187110186 ]
  - [   0.0001786354696378, -0.0372145399451256, -0.0611683093011379 ]
  - [  -0.0010893095750362, -0.0377220883965492, -0.0615299381315708 ]
  - [   0.0001523832906969, -0.0382040664553642, -0.0618422366678715 ]
  - [  -0.0005982209695503, -0.0377468243241310, -0.0615705996751785 ]
  - [  -0.0011412079911679, -0.0375568494200706, -0.0614789426326752 ]
  - [  -0.0011342009529471, -0.0378534011542797, -0.0615081936120987 ]
  - [  -0.0022632144391537,  0.0652745664119720, -0.0411241278052330 ]
  - [  -0.0022458969615400,  0.0653910636901855, -0.0404762700200081 ]
  - [  -0.0023644794709980,  0.0653099790215492, -0.0407814905047417 ]
  - [  -0.0021648581605405,  0.0653721764683723, -0.0407830253243446 ]
  - [  -0.0023903441615403,  0.0652787238359451, -0.0407741367816925 ]
  - [  -0.0023729722015560,  0.0653349757194519, -0.0408268868923187 ]
  - [   0.0017708691302687, -0.0835977569222450,  0.1031655371189117 ]
  - [   0.0017829542048275, -0.0835682526230812,  0.1034804284572601 ]
  - [   0.0018248897977173, -0.0836436673998833,  0.1038381606340408 ]
  - [   0.0017260360764340, -0.0836855992674828,  0.1035261750221252 ]
  - [   0.0017707645893097, -0.0835723280906677,  0.1035197451710701 ]
  - [   0.0019322343869135, -0.0835409238934517,  0.1034395396709442 ]
  - [   0.0084549738094211,  0.0079470090568066,  0.0493566505610943 ]
  - [   0.0086621288210154, -0.0073406975716352,  0.0495172366499901 ]
  - [  -0.0006833411753178,  0.0004155645146966,  0.0494332909584045 ]
  - [  -0.0001451056450605,  0.0004809135571122,  0.0494489073753357 ]
  - [  -0.0004832167178392,  0.0004383474588394,  0.0494083389639854 ]
  - [  -0.0004833918064833,  0.0003233505412936,  0.0494593828916550 ]
- atom:    1
  displacement:
    [  -0.0100000000000000,  0.0000000000000000,  0.0000000000000000 ]
  forces:
  - [   0.0264556109905243,  0.0579773411154747,  0.0093593019992113 ]
  - [   0.0006779826944694,  0.0571271106600761,  0.0093362526968122 ]
  - [   0.0006802657735534,  0.0584811940789223,  0.0093728136271238 ]
  - [   0.0010102540254593,  0.0578905455768108,  0.0093275690451264 ]
  - [   0.0010767355561256,  0.0577666498720646,  0.0093869660049677 ]
  - [   0.0010751560330391,  0.0577546916902065,  0.0093528777360916 ]
  - [  -0.0005050578620285, -0.0746745169162750, -0.0073488820344210 ]
  - [  -0.0001925058895722, -0.0749414563179016, -0.0073233246803284 ]
  - [  -0.0002133472735295, -0.0744023472070694, -0.0073782410472631 ]
  - [  -0.0045257052406669, -0.0778327658772469, -0.0072939665988088 ]
  - [  -0.0006731767207384, -0.0746828168630600, -0.0073505546897650 ]
  - [  -0.0045787408016622, -0.0714299529790878, -0.0074141202494502 ]
  - [  -0.0003974605351686, -0.0073066661134362, -0.0618250928819180 ]
  - [  -0.0003164475783706, -0.0073483702726662, -0.0618410333991051 ]
  - [  -0.0003234669566154, -0.0072808004915714, -0.0618198439478874 ]
  - [  -0.0006218382623047, -0.0073400335386395, -0.0618660636246204 ]
  - [  -0.0005257448647171, -0.0073219239711761, -0.0618403404951096 ]
  - [  -0.0006077964790165, -0.0072892694734037, -0.0617815665900707 ]
  - [   0.0016438560560346, -0.0231125429272652, -0.0786945223808289 ]
  - [   0.0015216711908579, -0.0232124440371990, -0.0787117481231689 ]
  - [   0.0015209587290883, -0.0230173431336880, -0.0786806344985962 ]
  - [   0.0014582503354177, -0.0230270400643349, -0.0786310434341431 ]
  - [   0.0014199950965121, -0.0231305584311485, -0.0786912068724632 ]
  - [   0.0014763603685424, -0.0231897644698620, -0.0787668153643608 ]
  - [   0.0000665783882141,  0.0417645126581192,  0.0222134031355381 ]
  - [  -0.0000301003456116,  0.0417045764625072,  0.0222410913556814 ]
  - [   0.0000143367797136,  0.0416994541883469,  0.0220439005643129 ]
  - [   0.0000303167707898,  0.0417171157896519,  0.0221544355154037 ]
  - [   0.0000521300535183,  0.0417268872261047,  0.0221729110926390 ]
  - [   0.0000523297967447,  0.0417257584631443,  0.0221611075103283 ]
  - [   0.0015246617840603,  0.0127335302531719,  0.0887317508459091 ]
  - [   0.0008280340116471,  0.0128845945000648,  0.0887168794870377 ]
  - [   0.0008289137622342,  0.0126427933573723,  0.0887080281972885 ]
  - [   0.0006048145587556,  0.0123021602630615,  0.0882403999567032 ]
  - [   0.0005781063227914,  0.0132284350693226,  0.0891872793436050 ]
  - [   0.0006245266413316,  0.0127741992473602,  0.0887118875980377 ]
  - [   0.0020514847710729,  0.0337554812431335, -0.0169490110129118 ]
  - [   0.0017582476139069,  0.0340295843780041, -0.0168444570153952 ]
  - [   0.0017521444242448,  0.0335075668990612, -0.0170084405690432 ]
  - [   0.0012971725082025,  0.0333391465246677, -0.0164389312267303 ]
  - [   0.0012691488955170,  0.0341897383332253, -0.0174194891005754 ]
  - [   0.0012899279827252,  0.0337746702134609, -0.0169327687472105 ]
  - [  -0.0013435906730592,  0.0143345771357417, -0.0059466343373060 ]
  - [  -0.0009439784334973,  0.0146180912852287, -0.0060416311025620 ]
  - [  -0.0013559014769271,  0.0149301104247570, -0.0061499085277319 ]
  - [  -0.0014000553637743,  0.0146605037152767, -0.0060862712562084 ]
  - [  -0.0008765390957706,  0.0144753828644753, -0.0060367565602064 ]
  - [  -0.0008790640276857,  0.0147412698715925, -0.0060048773884773 ]
  - [  -0.0020888654980808, -0.0382179692387581, -0.0618609599769115 ]
  - [  -0.0008376401383430, -0.0377144291996956, -0.0615108385682106 ]
  - [  -0.0021044709719718, -0.0372256785631180, -0.0611876621842384 ]
  - [  -0.0013306105975062, -0.0376894436776638, -0.0614673048257828 ]
  - [  -0.0007828698144294, -0.0378814786672592, -0.0615620426833630 ]
  - [  -0.0007905015954748, -0.0375853218138218, -0.0615296922624111 ]
  - [  -0.0024364907294512,  0.0653768554329872, -0.0404645241796970 ]
  - [  -0.0024590014945716,  0.0652557834982872, -0.0411161109805107 ]
  - [  -0.0023375444579870,  0.0653423070907593, -0.0408032163977623 ]
  - [  -0.0025397606659681,  0.0652865618467331, -0.0408058091998100 ]
  - [  -0.0023157806135714,  0.0653771683573723, -0.0408171489834785 ]
  - [  -0.0023260505404323,  0.0653217956423759, -0.0407627113163471 ]
  - [   0.0017821550136432, -0.0836075395345688,  0.1038245111703873 ]
  - [   0.0017643454484642, -0.0836367160081863,  0.1035055443644524 ]
  - [   0.0017235069535673, -0.0835635811090469,  0.1031501442193985 ]
  - [   0.0018316041678190, -0.0835175812244415,  0.1034603416919708 ]
  - [   0.0017756528686732, -0.0836315378546715,  0.1034693047404289 ]
  - [   0.0016165215056390, -0.0836547017097473,  0.1035524457693100 ]
  - [  -0.0098651181906462, -0.0073478370904922,  0.0495147705078125 ]
  - [  -0.0096362214535475,  0.0079416688531637,  0.0493518412113190 ]
  - [  -0.0005105212330818,  0.0004065269604325,  0.0494423769414425 ]
  - [  -0.0010465271770954,  0.0003410615026951,  0.0494319237768650 ]
  - [  -0.0006977524608374,  0.0003968225792050,  0.0494665987789631 ]
  - [  -0.0007175412029028,  0.0005102129653096,  0.0494174547493458 ]
- atom:    1
  displacement:
    [   0.0039802585735056,  0.0091737419675962,  0.0000000000000000 ]
  forces:
  - [  -0.0089928973466158,  0.0372013822197914,  0.0097513664513826 ]
  - [   0.0005184932961129,  0.0579112023115158,  0.0093475189059973 ]
  - [   0.0017606484470889,  0.0573719143867493,  0.0093339234590530 ]
  - [   0.0009284019470215,  0.0576974675059319,  0.0093681039288640 ]
  - [   0.0010293498635292,  0.0577602013945580,  0.0093656890094280 ]
  - [   0.0010201781988144,  0.0577640980482101,  0.0093443840742111 ]
  - [  -0.0007943577365950, -0.0751978084445000, -0.0072160763666034 ]
  - [  -0.0006925396155566, -0.0746303275227547, -0.0073211127892137 ]
  - [  -0.0011543054133654, -0.0747417286038399, -0.0072857765480876 ]
  - [   0.0037335189990699, -0.0713352635502815, -0.0074713779613376 ]
  - [  -0.0007228711619973, -0.0746314078569412, -0.0073478883132339 ]
  - [  -0.0020883521065116, -0.0738791972398758, -0.0074200406670570 ]
  - [  -0.0005687894299626, -0.0059881024062634, -0.0601205788552761 ]
  - [  -0.0004993537440896, -0.0073725101538002, -0.0617856830358505 ]
  - [  -0.0006974413990974, -0.0074232053011656, -0.0617846958339214 ]
  - [  -0.0004904184024781, -0.0072744814679027, -0.0616210736334324 ]
  - [  -0.0005146760959178, -0.0073336726054549, -0.0618430189788342 ]
  - [  -0.0004794967826456, -0.0072941780090332, -0.0616451725363731 ]
  - [   0.0013508470728993, -0.0215730834752321, -0.0805804207921028 ]
  - [   0.0014411816373467, -0.0231687519699335, -0.0787605121731758 ]
  - [   0.0013465983793139, -0.0232610292732716, -0.0787731111049652 ]
  - [   0.0012074506375939, -0.0232941173017025, -0.0789086148142815 ]
  - [   0.0014323545619845, -0.0231567639857531, -0.0786828547716141 ]
  - [   0.0016207314329222, -0.0232114009559155, -0.0788708329200745 ]
  - [   0.0000433325767517,  0.0417729802429676,  0.0222499072551727 ]
  - [   0.0000692475587130,  0.0417599864304066,  0.0221336726099253 ]
  - [   0.0000465810298920,  0.0417762286961079,  0.0221441276371479 ]
  - [   0.0000191935941984,  0.0416978783905506,  0.0222121570259333 ]
  - [   0.0000447718484793,  0.0417361184954643,  0.0221420209854841 ]
  - [   0.0000617439218331,  0.0418057441711426,  0.0221821423619986 ]
  - [   0.0002632646937855,  0.0156654193997383,  0.0833426713943481 ]
  - [   0.0005637070862576,  0.0127640776336193,  0.0886515527963638 ]
  - [   0.0005179697182029,  0.0128821432590485,  0.0886645615100861 ]
  - [   0.0008830216829665,  0.0134303197264671,  0.0894038900732994 ]
  - [   0.0003041866584681,  0.0131075493991375,  0.0889952629804611 ]
  - [   0.0006990911206231,  0.0127061344683170,  0.0887433588504791 ]
  - [   0.0010135758202523,  0.0367171540856361, -0.0111581888049841 ]
  - [   0.0011524794390425,  0.0337560586631298, -0.0168894492089748 ]
  - [   0.0011397822527215,  0.0339670851826668, -0.0168511364609003 ]
  - [   0.0015445246826857,  0.0344438478350639, -0.0176415685564280 ]
  - [   0.0010514354798943,  0.0341507755219936, -0.0172177422791719 ]
  - [   0.0013854271965101,  0.0337036363780499, -0.0169703178107738 ]
  - [  -0.0005077995010652,  0.0147978123277426, -0.0056909918785095 ]
  - [  -0.0010952058946714,  0.0146691137924790, -0.0060382522642612 ]
  - [  -0.0013494062004611,  0.0145610282197595, -0.0056083500385284 ]
  - [  -0.0008683637715876,  0.0144766271114349, -0.0060709770768881 ]
  - [  -0.0010047396644950,  0.0145522560924292, -0.0060556549578905 ]
  - [  -0.0012652375735343,  0.0145352892577648, -0.0062788631767035 ]
  - [  -0.0001686571631581, -0.0373081900179386, -0.0619769170880318 ]
  - [  -0.0010150354355574, -0.0376938693225384, -0.0615131109952927 ]
  - [  -0.0008566979668103, -0.0377204716205597, -0.0622339509427547 ]
  - [  -0.0007693981169723, -0.0378370285034180, -0.0616104640066624 ]
  - [  -0.0009288811706938, -0.0377783142030239, -0.0615169219672680 ]
  - [  -0.0011847865534946, -0.0376716405153275, -0.0612499192357063 ]
  - [  -0.0020450865849853,  0.0654051601886749, -0.0409355834126472 ]
  - [  -0.0025957683101296,  0.0654274970293045, -0.0406261309981346 ]
  - [  -0.0023426045663655,  0.0653298497200012, -0.0408405587077141 ]
  - [  -0.0022239338140935,  0.0650738626718521, -0.0403230004012585 ]
  - [  -0.0023552551865578,  0.0653119981288910, -0.0408202148973942 ]
  - [  -0.0024248978588730,  0.0653370991349220, -0.0407882332801819 ]
  - [   0.0015511610545218, -0.0836773514747620,  0.1034968048334122 ]
  - [   0.0017756565939635, -0.0836005359888077,  0.1035252511501312 ]
  - [   0.0020180828869343, -0.0836308449506760,  0.1038100644946098 ]
  - [   0.0017892640316859, -0.0836629197001457,  0.1034943908452988 ]
  - [   0.0017485406715423, -0.0836115330457687,  0.1035140752792358 ]
  - [   0.0018279657233506, -0.0842588990926743,  0.1026887670159340 ]
  - [   0.0083112539723516,  0.0077811414375901,  0.0493869408965111 ]