phonopy:
  version: "2.37.1"
  frequency_unit_conversion_factor: 15.633302
  symmetry_tolerance: 1.00000e-05

space_group:
  type: "Cm"
  number: 8
  Hall_symbol: "C -2y"

primitive_matrix:
- [ -1.000000000000000,  0.000000000000000, -0.000000000000000 ]
- [  0.000000000000000, -1.000000000000000,  0.000000000000000 ]
- [  0.000000000000000,  0.000000000000000,  1.000000000000000 ]

supercell_matrix:
- [   2,   0,   0 ]
- [   0,   2,   0 ]
- [   0,   0,   2 ]

primitive_cell:
  lattice:
  - [    -5.716945059398848,     0.000000000000000,     0.000000000000000 ] # a
  - [    -4.756192488609828,    -3.172080255276311,     0.000000000000000 ] # b
  - [     1.963161365760567,     0.594597544824680,     7.236092551668860 ] # c
  points:
  - symbol: Li # 1
    coordinates: [  0.985422117810170,  0.985422113485514,  0.991909591212448 ]
    mass: 6.940000
  - symbol: Li # 2
    coordinates: [  0.676992626100544,  0.676992627357492,  0.342338602879660 ]
    mass: 6.940000
  - symbol: Li # 3
    coordinates: [  0.614694806029141,  0.614694794135503,  0.722643679441703 ]
    mass: 6.940000
  - symbol: Sn # 4
    coordinates: [  0.335617183298665,  0.335617176285517,  0.670036193297488 ]
    mass: 118.710000
  - symbol: Sn # 5
    coordinates: [  0.956959924471120,  0.956959937446109,  0.384289478502715 ]
    mass: 118.710000
  - symbol: Sn # 6
    coordinates: [  0.263646675992419,  0.263646684320730,  0.055449121129830 ]
    mass: 118.710000
  reciprocal_lattice: # without 2pi
  - [    -0.174918595440403,     0.262271582936151,     0.025904504135641 ] # a*
  - [    -0.000000000000000,    -0.315250535775897,     0.025904477207631 ] # b*
  - [    -0.000000000000000,    -0.000000000000000,     0.138196131801737 ] # c*

unit_cell:
  lattice:
  - [     5.716945059398848,     0.000000000000000,     0.000000000000000 ] # a
  - [     4.756192488609829,     3.172080255276311,     0.000000000000000 ] # b
  - [     1.963161365760569,     0.594597544824680,     7.236092551668862 ] # c
  points:
  - symbol: Li # 1
    coordinates: [  0.014577882189830,  0.014577886514486,  0.991909591212448 ]
    mass: 6.940000
    reduced_to: 1
  - symbol: Li # 2
    coordinates: [  0.323007373899456,  0.323007372642508,  0.342338602879660 ]
    mass: 6.940000
    reduced_to: 2
  - symbol: Li # 3
    coordinates: [  0.385305193970859,  0.385305205864497,  0.722643679441703 ]
    mass: 6.940000
    reduced_to: 3
  - symbol: Sn # 4
    coordinates: [  0.664382816701335,  0.664382823714483,  0.670036193297488 ]
    mass: 118.710000
    reduced_to: 4
  - symbol: Sn # 5
    coordinates: [  0.043040075528880,  0.043040062553891,  0.384289478502715 ]
    mass: 118.710000
    reduced_to: 5
  - symbol: Sn # 6
    coordinates: [  0.736353324007581,  0.736353315679270,  0.055449121129830 ]
    mass: 118.710000
    reduced_to: 6

supercell:
  lattice:
  - [    11.433890118797697,     0.000000000000000,     0.000000000000000 ] # a
  - [     9.512384977219657,     6.344160510552623,     0.000000000000000 ] # b
  - [     3.926322731521137,     1.189195089649359,    14.472185103337724 ] # c
  points:
  - symbol: Li # 1
    coordinates: [  0.007288941094915,  0.007288943257243,  0.495954795606224 ]
    mass: 6.940000
    reduced_to: 1
  - symbol: Li # 2
    coordinates: [  0.507288941094915,  0.007288943257243,  0.495954795606224 ]
    mass: 6.940000
    reduced_to: 1
  - symbol: Li # 3
    coordinates: [  0.007288941094915,  0.507288943257243,  0.495954795606224 ]
    mass: 6.940000
    reduced_to: 1
  - symbol: Li # 4
    coordinates: [  0.507288941094915,  0.507288943257243,  0.495954795606224 ]
    mass: 6.940000
    reduced_to: 1
  - symbol: Li # 5
    coordinates: [  0.007288941094915,  0.007288943257243,  0.995954795606224 ]
    mass: 6.940000
    reduced_to: 1
  - symbol: Li # 6
    coordinates: [  0.507288941094915,  0.007288943257243,  0.995954795606224 ]
    mass: 6.940000
    reduced_to: 1
  - symbol: Li # 7
    coordinates: [  0.007288941094915,  0.507288943257243,  0.995954795606224 ]
    mass: 6.940000
    reduced_to: 1
  - symbol: Li # 8
    coordinates: [  0.507288941094915,  0.507288943257243,  0.995954795606224 ]
    mass: 6.940000
    reduced_to: 1
  - symbol: Li # 9
    coordinates: [  0.161503686949728,  0.161503686321254,  0.171169301439830 ]
    mass: 6.940000
    reduced_to: 9
  - symbol: Li # 10
    coordinates: [  0.661503686949728,  0.161503686321254,  0.171169301439830 ]
    mass: 6.940000
    reduced_to: 9
  - symbol: Li # 11
    coordinates: [  0.161503686949728,  0.661503686321254,  0.171169301439830 ]
    mass: 6.940000
    reduced_to: 9
  - symbol: Li # 12
    coordinates: [  0.661503686949728,  0.661503686321254,  0.171169301439830 ]
    mass: 6.940000
    reduced_to: 9
  - symbol: Li # 13
    coordinates: [  0.161503686949728,  0.161503686321254,  0.671169301439830 ]
    mass: 6.940000
    reduced_to: 9
  - symbol: Li # 14
    coordinates: [  0.661503686949728,  0.161503686321254,  0.671169301439830 ]
    mass: 6.940000
    reduced_to: 9
  - symbol: Li # 15
    coordinates: [  0.161503686949728,  0.661503686321254,  0.671169301439830 ]
    mass: 6.940000
    reduced_to: 9
  - symbol: Li # 16
    coordinates: [  0.661503686949728,  0.661503686321254,  0.671169301439830 ]
    mass: 6.940000
    reduced_to: 9
  - symbol: Li # 17
    coordinates: [  0.192652596985430,  0.192652602932249,  0.361321839720852 ]
    mass: 6.940000
    reduced_to: 17
  - symbol: Li # 18
    coordinates: [  0.692652596985430,  0.192652602932249,  0.361321839720852 ]
    mass: 6.940000
    reduced_to: 17
  - symbol: Li # 19
    coordinates: [  0.192652596985430,  0.692652602932249,  0.361321839720852 ]
    mass: 6.940000
    reduced_to: 17
  - symbol: Li # 20
    coordinates: [  0.692652596985430,  0.692652602932249,  0.361321839720852 ]
    mass: 6.940000
    reduced_to: 17
  - symbol: Li # 21
    coordinates: [  0.192652596985430,  0.192652602932249,  0.861321839720852 ]
    mass: 6.940000
    reduced_to: 17
  - symbol: Li # 22
    coordinates: [  0.692652596985430,  0.192652602932249,  0.861321839720852 ]
    mass: 6.940000
    reduced_to: 17
  - symbol: Li # 23
    coordinates: [  0.192652596985430,  0.692652602932249,  0.861321839720852 ]
    mass: 6.940000
    reduced_to: 17
  - symbol: Li # 24
    coordinates: [  0.692652596985430,  0.692652602932249,  0.861321839720852 ]
    mass: 6.940000
    reduced_to: 17
  - symbol: Sn # 25
    coordinates: [  0.332191408350667,  0.332191411857241,  0.335018096648744 ]
    mass: 118.710000
    reduced_to: 25
  - symbol: Sn # 26
    coordinates: [  0.832191408350667,  0.332191411857241,  0.335018096648744 ]
    mass: 118.710000
    reduced_to: 25
  - symbol: Sn # 27
    coordinates: [  0.332191408350667,  0.832191411857241,  0.335018096648744 ]
    mass: 118.710000
    reduced_to: 25
  - symbol: Sn # 28
    coordinates: [  0.832191408350667,  0.832191411857241,  0.335018096648744 ]
    mass: 118.710000
    reduced_to: 25
  - symbol: Sn # 29
    coordinates: [  0.332191408350667,  0.332191411857241,  0.835018096648744 ]
    mass: 118.710000
    reduced_to: 25
  - symbol: Sn # 30
    coordinates: [  0.832191408350667,  0.332191411857241,  0.835018096648744 ]
    mass: 118.710000
    reduced_to: 25
  - symbol: Sn # 31
    coordinates: [  0.332191408350667,  0.832191411857241,  0.835018096648744 ]
    mass: 118.710000
    reduced_to: 25
  - symbol: Sn # 32
    coordinates: [  0.832191408350667,  0.832191411857241,  0.835018096648744 ]
    mass: 118.710000
    reduced_to: 25
  - symbol: Sn # 33
    coordinates: [  0.021520037764440,  0.021520031276945,  0.192144739251358 ]
    mass: 118.710000
    reduced_to: 33
  - symbol: Sn # 34
    coordinates: [  0.521520037764440,  0.021520031276945,  0.192144739251358 ]
    mass: 118.710000
    reduced_to: 33
  - symbol: Sn # 35
    coordinates: [  0.021520037764440,  0.521520031276945,  0.192144739251358 ]
    mass: 118.710000
    reduced_to: 33
  - symbol: Sn # 36
    coordinates: [  0.521520037764440,  0.521520031276945,  0.192144739251358 ]
    mass: 118.710000
    reduced_to: 33
  - symbol: Sn # 37
    coordinates: [  0.021520037764440,  0.021520031276945,  0.692144739251358 ]
    mass: 118.710000
    reduced_to: 33
  - symbol: Sn # 38
    coordinates: [  0.521520037764440,  0.021520031276945,  0.692144739251358 ]
    mass: 118.710000
    reduced_to: 33
  - symbol: Sn # 39
    coordinates: [  0.021520037764440,  0.521520031276945,  0.692144739251358 ]
    mass: 118.710000
    reduced_to: 33
  - symbol: Sn # 40
    coordinates: [  0.521520037764440,  0.521520031276945,  0.692144739251358 ]
    mass: 118.710000
    reduced_to: 33
  - symbol: Sn # 41
    coordinates: [  0.368176662003791,  0.368176657839635,  0.027724560564915 ]
    mass: 118.710000
    reduced_to: 41
  - symbol: Sn # 42
    coordinates: [  0.868176662003791,  0.368176657839635,  0.027724560564915 ]
    mass: 118.710000
    reduced_to: 41
  - symbol: Sn # 43
    coordinates: [  0.368176662003791,  0.868176657839635,  0.027724560564915 ]
    mass: 118.710000
    reduced_to: 41
  - symbol: Sn # 44
    coordinates: [  0.868176662003791,  0.868176657839635,  0.027724560564915 ]
    mass: 118.710000
    reduced_to: 41
  - symbol: Sn # 45
    coordinates: [  0.368176662003791,  0.368176657839635,  0.527724560564915 ]
    mass: 118.710000
    reduced_to: 41
  - symbol: Sn # 46
    coordinates: [  0.868176662003791,  0.368176657839635,  0.527724560564915 ]
    mass: 118.710000
    reduced_to: 41
  - symbol: Sn # 47
    coordinates: [  0.368176662003791,  0.868176657839635,  0.527724560564915 ]
    mass: 118.710000
    reduced_to: 41
  - symbol: Sn # 48
    coordinates: [  0.868176662003791,  0.868176657839635,  0.527724560564915 ]
    mass: 118.710000
    reduced_to: 41

displacements:
- atom:    1
  displacement:
    [   0.0100000000000000,  0.0000000000000000,  0.0000000000000000 ]
  forces:
  - [  -0.0119220241904259,  0.0001197252422571,  0.0093581341207027 ]
  - [   0.0083791613578796,  0.0028863400220871,  0.0082872537896037 ]
  - [   0.0088017433881760,  0.0022546090185642,  0.0082184225320816 ]
  - [   0.0099475607275963,  0.0017606820911169,  0.0085984636098146 ]
  - [   0.0097746402025223,  0.0029580909758806,  0.0083188069984317 ]
  - [   0.0097800865769386,  0.0029648561030626,  0.0083182919770479 ]
  - [   0.0097837597131729,  0.0029608029872179,  0.0083168400451541 ]
  - [   0.0097674652934074,  0.0029605422168970,  0.0083234943449497 ]
  - [  -0.0322424024343491, -0.0098947389051318,  0.0071639008820057 ]
  - [  -0.0322199426591396, -0.0098547404631972,  0.0069400146603584 ]
  - [  -0.0322143957018852, -0.0096721276640892,  0.0070050358772278 ]
  - [  -0.0323033183813095, -0.0095577519387007,  0.0073411483317614 ]
  - [  -0.0319418199360371, -0.0096506858244538,  0.0070193875581026 ]
  - [  -0.0313233435153961, -0.0102108567953110,  0.0061165280640125 ]
  - [  -0.0318222269415855, -0.0091862455010414,  0.0064208488911390 ]
  - [  -0.0325670689344406, -0.0097888559103012,  0.0062068551778793 ]
  - [   0.0224748253822327,  0.0067672822624445, -0.0092708338052034 ]
  - [   0.0246917679905891,  0.0066328588873148, -0.0091574396938086 ]
  - [   0.0237982869148254,  0.0077436883002520, -0.0093871131539345 ]
  - [   0.0233791880309582,  0.0070392061024904, -0.0103899724781513 ]
  - [   0.0231779217720032,  0.0070181395858526, -0.0101344874128699 ]
  - [   0.0231624618172646,  0.0070046670734882, -0.0100856730714440 ]
  - [   0.0231870338320732,  0.0070315916091204, -0.0100935352966189 ]
  - [   0.0231279022991657,  0.0070073865354061, -0.0099207060411572 ]
  - [   0.0241148285567760,  0.0073500741273165, -0.0055319899693131 ]
  - [   0.0245560482144356,  0.0085769565775990, -0.0074618281796575 ]
  - [   0.0263997539877892,  0.0057363808155060, -0.0097185093909502 ]
  - [   0.0240118056535721,  0.0072714919224381, -0.0057925665751100 ]
  - [   0.0240105800330639,  0.0073347771540284, -0.0053327167406678 ]
  - [   0.0240960419178009,  0.0071734394878149, -0.0057934196665883 ]
  - [   0.0239929072558880,  0.0074014244601130, -0.0058225002139807 ]
  - [   0.0242088660597801,  0.0073132794350386, -0.0055987741798162 ]
  - [  -0.0230624824762344, -0.0069517455995083,  0.0224398709833622 ]
  - [  -0.0230485275387764, -0.0070710387080908,  0.0224582888185978 ]
  - [  -0.0231294780969620, -0.0069146566092968,  0.0224608033895493 ]
  - [  -0.0232188254594803, -0.0070174708962440,  0.0226699095219374 ]
  - [  -0.0228156149387360, -0.0068196542561054,  0.0261177625507116 ]
  - [  -0.0232499837875366, -0.0068356133997440,  0.0226157810539007 ]
  - [  -0.0231469124555588, -0.0072456654161215,  0.0226207599043846 ]
  - [  -0.0231091603636742, -0.0071180239319801,  0.0225369576364756 ]
  - [  -0.0018141344189644, -0.0005498183891177, -0.0222701150923967 ]
  - [  -0.0017789565026760, -0.0005904585123062, -0.0223252847790718 ]
  - [  -0.0018151663243771, -0.0004995102062821, -0.0223309919238091 ]
  - [  -0.0018341243267059, -0.0005554836243391, -0.0222777128219604 ]
  - [  -0.0020680837333202, -0.0006157197058201, -0.0220979433506727 ]
  - [   0.0016073100268841,  0.0028817467391491, -0.0215328410267830 ]
  - [   0.0046024844050407, -0.0018558297306299, -0.0210315734148026 ]
  - [   0.0078135915100574,  0.0023066448047757, -0.0225150045007467 ]
- atom:    1
  displacement:
    [  -0.0100000000000000,  0.0000000000000000,  0.0000000000000000 ]
  forces:
  - [   0.0316705703735352,  0.0059820991009474,  0.0071682259440422 ]
  - [   0.0111929178237915,  0.0030415076762438,  0.0083229169249535 ]
  - [   0.0107730925083160,  0.0036727115511894,  0.0083915209397674 ]
  - [   0.0096245408058167,  0.0041706915944815,  0.0080067589879036 ]
  - [   0.0097984001040459,  0.0029701981693506,  0.0082946009933949 ]
  - [   0.0097938776016235,  0.0029642675071955,  0.0082954997196794 ]
  - [   0.0097923204302788,  0.0029682628810406,  0.0082975588738918 ]
  - [   0.0098052620887756,  0.0029671192169189,  0.0082902731373906 ]
  - [  -0.0321135371923447, -0.0095976833254099,  0.0069786924868822 ]
  - [  -0.0321356281638145, -0.0096369041129947,  0.0072052702307701 ]
  - [  -0.0321410335600376, -0.0098204631358385,  0.0071368105709553 ]
  - [  -0.0320495963096619, -0.0099350446835160,  0.0067978836596012 ]
  - [  -0.0324307456612587, -0.0098470281809568,  0.0071161799132824 ]
  - [  -0.0330432690680027, -0.0092780040577054,  0.0080433264374733 ]
  - [  -0.0325341299176216, -0.0103058526292443,  0.0077254716306925 ]
  - [  -0.0317929238080978, -0.0097024282440543,  0.0079268775880337 ]
  - [   0.0237837396562099,  0.0072411801666021, -0.0106677450239658 ]
  - [   0.0215430371463299,  0.0073862187564373, -0.0108084538951516 ]
  - [   0.0224577039480209,  0.0062619429081678, -0.0105599705129862 ]
  - [   0.0228941105306149,  0.0069726742804050, -0.0095576131716371 ]
  - [   0.0230876281857491,  0.0069947261363268, -0.0098116872832179 ]
  - [   0.0231050960719585,  0.0070089213550091, -0.0098633924499154 ]
  - [   0.0230786129832268,  0.0069823600351810, -0.0098564382642508 ]
  - [   0.0231351032853127,  0.0070055127143860, -0.0100260898470879 ]
  - [   0.0243049636483192,  0.0073129814118147, -0.0055716186761856 ]
  - [   0.0238379649817944,  0.0060598999261856, -0.0036055175587535 ]
  - [   0.0220110751688480,  0.0089083313941956, -0.0014298250898719 ]
  - [   0.0244027823209763,  0.0073951892554760, -0.0053037116304040 ]
  - [   0.0244088098406792,  0.0073287971317768, -0.0057736029848456 ]
  - [   0.0243221670389175,  0.0074896700680256, -0.0053109917789698 ]
  - [   0.0244260057806969,  0.0072645852342248, -0.0052819959819317 ]
  - [   0.0242179781198502,  0.0073535386472940, -0.0055079534649849 ]
  - [  -0.0232054069638252, -0.0070622842758894,  0.0224405378103256 ]
  - [  -0.0232197940349579, -0.0069424435496330,  0.0224249307066202 ]
  - [  -0.0231387764215469, -0.0070977117866278,  0.0224178563803434 ]
  - [  -0.0230527371168137, -0.0069944541901350,  0.0222058128565550 ]
  - [  -0.0234730169177055, -0.0071939434856176,  0.0187625251710415 ]
  - [  -0.0230155736207962, -0.0071780327707529,  0.0222630593925714 ]
  - [  -0.0231178626418114, -0.0067643467336893,  0.0222563557326794 ]
  - [  -0.0231628194451332, -0.0068987421691418,  0.0223448574542999 ]
  - [  -0.0018212236464024, -0.0005504097789526, -0.0223136302083731 ]
  - [  -0.0018585212528706, -0.0005147894844413, -0.0222578682005405 ]
  - [  -0.0018221735954285, -0.0006014145910740, -0.0222525838762522 ]
  - [  -0.0018007680773735, -0.0005471808835864, -0.0223076064139605 ]
  - [  -0.0015496239066124, -0.0004885364323854, -0.0224942713975906 ]
  - [  -0.0051840580999851, -0.0039011752232909, -0.0230328161269426 ]
  - [  -0.0079952403903008,  0.0006915666162968, -0.0235007442533970 ]
  - [  -0.0118093378841877, -0.0035360641777515, -0.0220176912844181 ]
- atom:    1
  displacement:
    [   0.0026101672968633,  0.0007905611292912,  0.0096209167849659 ]
  forces:
  - [   0.0048166364431381,  0.0014590937644243, -0.0093392413109541 ]
  - [   0.0093943104147911,  0.0028347577899694,  0.0084217721596360 ]
  - [   0.0093888342380524,  0.0028539542108774,  0.0084218736737967 ]
  - [   0.0100181847810745,  0.0030341204255819,  0.0077637331560254 ]
  - [   0.0097951069474220,  0.0029668156057596,  0.0083787478506565 ]
  - [   0.0097961276769638,  0.0029650442302227,  0.0082806013524532 ]
  - [   0.0097958147525787,  0.0029691867530346,  0.0082809487357736 ]
  - [   0.0097974240779877,  0.0029671844094992,  0.0083947042003274 ]
  - [  -0.0321136377751827, -0.0097269080579281,  0.0070874076336622 ]
  - [  -0.0321621522307396, -0.0098020192235708,  0.0069809965789318 ]
  - [  -0.0321955233812332, -0.0096910223364830,  0.0069800689816475 ]
  - [  -0.0317769460380077, -0.0096250474452972,  0.0059047751128674 ]
  - [  -0.0318510532379150, -0.0096472809091210,  0.0069231986999512 ]
  - [  -0.0326318442821503, -0.0095344521105289,  0.0076977014541626 ]
  - [  -0.0324373990297318, -0.0101739745587111,  0.0076978355646133 ]
  - [  -0.0324108749628067, -0.0098164035007358,  0.0066350549459457 ]
  - [   0.0234307236969471,  0.0070962570607662, -0.0098024681210518 ]
  - [   0.0245607867836952,  0.0069083254784346, -0.0090792905539274 ]
  - [   0.0242664590477943,  0.0078796129673719, -0.0090792998671532 ]
  - [   0.0238451398909092,  0.0072224456816912, -0.0097720986232162 ]
  - [   0.0231345742940903,  0.0070069134235382, -0.0100057171657681 ]
  - [   0.0232766307890415,  0.0070617347955704, -0.0098658101633191 ]
  - [   0.0232821032404900,  0.0070403069257736, -0.0098658986389637 ]
  - [   0.0231827683746815,  0.0070218369364738, -0.0099868420511484 ]
  - [   0.0239194557070732,  0.0072434423491359, -0.0055811963975430 ]
  - [   0.0228208675980568,  0.0039994064718485, -0.0014397623017430 ]
  - [   0.0212053060531616,  0.0093363281339407, -0.0014392584562302 ]
  - [   0.0244022831320763,  0.0073928311467171, -0.0054794251918793 ]
  - [   0.0242385081946850,  0.0073412191122770, -0.0058637894690037 ]
  - [   0.0240126214921474,  0.0071165859699249, -0.0060734217986465 ]
  - [   0.0239266827702522,  0.0074031390249729, -0.0060739796608686 ]
  - [   0.0240811742842197,  0.0072931954637170, -0.0055240504443645 ]
  - [  -0.0230927392840385, -0.0069938544183969,  0.0227557085454464 ]
  - [  -0.0232381299138069, -0.0070212669670582,  0.0224640890955925 ]
  - [  -0.0232292637228966, -0.0070520509034395,  0.0224622357636690 ]
  - [  -0.0231432691216469, -0.0070088375359774,  0.0223313476890326 ]
  - [  -0.0218950957059860, -0.0066320970654488,  0.0306644346565008 ]
  - [  -0.0231974050402641, -0.0069949235767126,  0.0225368924438953 ]
  - [  -0.0231802463531494, -0.0070516653358936,  0.0225363261997700 ]
  - [  -0.0232123509049416, -0.0070301424711943,  0.0224152021110058 ]
  - [  -0.0018202774226665, -0.0005508614704013, -0.0222287755459547 ]
  - [  -0.0017493888735771, -0.0004803547635674, -0.0221860967576504 ]
  - [  -0.0017207637429237, -0.0005720425397158, -0.0221863798797131 ]
  - [  -0.0018011033535004, -0.0005462765693665, -0.0223332419991493 ]
  - [  -0.0018024183809757, -0.0005453340709209, -0.0223878771066666 ]
  - [  -0.0000486001372337,  0.0015075094997883, -0.0224338192492723 ]
  - [   0.0007965341210365, -0.0012805629521608, -0.0224341601133347 ]
  - [  -0.0004745274782181, -0.0001438828185201, -0.0215537548065186 ]
- atom:    1
  displacement:
    [  -0.0026101672968633, -0.0007905611292912, -0.0096209167849659 ]
  forces:
  - [   0.0145506039261818,  0.0044072922319174,  0.0259320512413979 ]
  - [   0.0101752802729607,  0.0030936747789383,  0.0081881023943424 ]
  - [   0.0101822614669800,  0.0030718669295311,  0.0081881340593100 ]
  - [   0.0095555037260056,  0.0028938353061676,  0.0088500119745731 ]
  - [   0.0097787603735924,  0.0029618181288242,  0.0082337791100144 ]
  - [   0.0097777172923088,  0.0029641967266798,  0.0083330869674683 ]
  - [   0.0097801685333252,  0.0029597375541925,  0.0083334445953369 ]
  - [   0.0097759664058685,  0.0029606409370899,  0.0082185603678226 ]
  - [  -0.0322398096323013, -0.0097651798278093,  0.0070501249283552 ]
  - [  -0.0321957692503929, -0.0096889790147543,  0.0071627106517553 ]
  - [  -0.0321606770157814, -0.0098037570714951,  0.0071619786322117 ]
  - [  -0.0325784496963024, -0.0098676327615976,  0.0082385595887899 ]
  - [  -0.0325133651494980, -0.0098478933796287,  0.0072100721299648 ]
  - [  -0.0317371152341366, -0.0099515467882156,  0.0064519494771957 ]
  - [  -0.0319246314466000, -0.0093306284397840,  0.0064522437751293 ]
  - [  -0.0319473966956139, -0.0096759712323546,  0.0075104162096977 ]
  - [   0.0228203013539314,  0.0069113541394472, -0.0101426010951400 ]
  - [   0.0216808319091797,  0.0071213170886040, -0.0108856270089746 ]
  - [   0.0219886600971222,  0.0061044916510582, -0.0108855906873941 ]
  - [   0.0224173255264759,  0.0067901238799095, -0.0101717468351126 ]
  - [   0.0231310985982418,  0.0070059429854155, -0.0099418498575687 ]
  - [   0.0229918137192726,  0.0069535598158836, -0.0100747831165791 ]
  - [   0.0229851230978966,  0.0069722365587950, -0.0100749647244811 ]
  - [   0.0230804271996021,  0.0069907922297716, -0.0099615724757314 ]
  - [   0.0245071388781071,  0.0074218455702066, -0.0055189635604620 ]
  - [   0.0256394818425179,  0.0107640419155359, -0.0097378604114056 ]
  - [   0.0273034982383251,  0.0052725924178958, -0.0097381928935647 ]
  - [   0.0240066684782505,  0.0072728917002678, -0.0056205978617072 ]
  - [   0.0241797454655170,  0.0073234643787146, -0.0052442252635956 ]
  - [   0.0244013853371143,  0.0075394632294774, -0.0050358939915895 ]
  - [   0.0244846455752850,  0.0072669992223382, -0.0050363065674901 ]
  - [   0.0243435576558113,  0.0073725646361709, -0.0055812355130911 ]
  - [  -0.0231795310974121, -0.0070205349475145,  0.0221246462315321 ]
  - [  -0.0230297148227692, -0.0069931857287884,  0.0224174186587334 ]
  - [  -0.0230401307344437, -0.0069598965346813,  0.0224155765026808 ]
  - [  -0.0231249704957008, -0.0070034060627222,  0.0225377585738897 ]
  - [  -0.0242785885930061, -0.0073539149016142,  0.0144808311015368 ]
  - [  -0.0230655595660210, -0.0070166271179914,  0.0223416052758694 ]
  - [  -0.0230822637677193, -0.0069604180753231,  0.0223417636007071 ]
  - [  -0.0230581089854240, -0.0069835875183344,  0.0224557742476463 ]
  - [  -0.0018142312765121, -0.0005491133779287, -0.0223556198179722 ]
  - [  -0.0018881596624851, -0.0006230426952243, -0.0223949234932661 ]
  - [  -0.0019153505563736, -0.0005302652716637, -0.0223952438682318 ]
  - [  -0.0018335022032261, -0.0005559911951423, -0.0222531538456678 ]
  - [  -0.0018384829163551, -0.0005564261227846, -0.0221961252391338 ]
  - [  -0.0035729892551899, -0.0025869449600577, -0.0221756212413311 ]
  - [  -0.0044073536992073,  0.0001706071197987, -0.0221752934157848 ]
  - [  -0.0031118504703045, -0.0009424109011889, -0.0230325777083635 ]
- atom:    9
  displacement:
    [   0.0100000000000000,  0.0000000000000000,  0.0000000000000000 ]
  forces:
  - [   0.0097205042839050,  0.0028155446052551,  0.0084012625738978 ]
  - [   0.0097444653511047,  0.0030466075986624,  0.0083276499062777 ]
  - [   0.0097503215074539,  0.0028464794158936,  0.0083065927028656 ]
  - [   0.0096599087119102,  0.0031517799943686,  0.0087430058047175 ]
  - [   0.0100356042385101,  0.0030624847859144,  0.0085812313482165 ]
  - [   0.0106499567627907,  0.0027638208121061,  0.0076190680265427 ]
  - [   0.0101436525583267,  0.0032549723982811,  0.0079209394752979 ]
  - [   0.0093978494405746,  0.0029211267828941,  0.0081724878400564 ]
  - [  -0.0568155273795128, -0.0130321793258190,  0.0055899508297443 ]
  - [  -0.0338452234864235, -0.0096581522375345,  0.0070033855736256 ]
  - [  -0.0331694521009922, -0.0106591079384089,  0.0070037469267845 ]
  - [  -0.0320147238671780, -0.0107039250433445,  0.0070970710366964 ]
  - [  -0.0321940332651138, -0.0097308522090316,  0.0070803016424179 ]
  - [  -0.0321999415755272, -0.0097589204087853,  0.0070691127330065 ]
  - [  -0.0322063714265823, -0.0097485473379493,  0.0070696193724871 ]
  - [  -0.0321795046329498, -0.0097665097564459,  0.0070650633424520 ]
  - [   0.0239665023982525,  0.0073814205825329, -0.0090655721724033 ]
  - [   0.0232754163444042,  0.0068821422755718, -0.0100022219121456 ]
  - [   0.0232649110257626,  0.0071368776261806, -0.0099582681432366 ]
  - [   0.0226085484027863,  0.0066305585205555, -0.0094901705160737 ]
  - [   0.0231730602681637,  0.0070723704993725, -0.0100311497226357 ]
  - [   0.0231413841247559,  0.0070226453244686, -0.0099645406007767 ]
  - [   0.0231554433703423,  0.0070000924170017, -0.0100133623927832 ]
  - [   0.0231790840625763,  0.0069498773664236, -0.0100703481584787 ]
  - [   0.0243384242057800,  0.0073222909122705, -0.0059397537261248 ]
  - [   0.0262501835823059,  0.0056033907458186, -0.0085028009489179 ]
  - [   0.0242549069225788,  0.0088385464623570, -0.0070875929668546 ]
  - [   0.0235120132565498,  0.0072342809289694, -0.0061202738434076 ]
  - [   0.0241787731647491,  0.0073126796633005, -0.0055221347138286 ]
  - [   0.0239776112139225,  0.0074484627693892, -0.0058271959424019 ]
  - [   0.0241026878356934,  0.0071787079796195, -0.0058065988123417 ]
  - [   0.0239636637270451,  0.0073128417134285, -0.0054187886416912 ]
  - [  -0.0150246024131775, -0.0044388733804226,  0.0215764287859201 ]
  - [  -0.0146876573562622, -0.0077107194811106,  0.0228871200233698 ]
  - [  -0.0185589492321014, -0.0034615565091372,  0.0228380449116230 ]
  - [  -0.0231893286108971, -0.0071500837802887,  0.0222738552838564 ]
  - [  -0.0230507254600525, -0.0069468468427658,  0.0224849916994572 ]
  - [  -0.0231164172291756, -0.0070099495351315,  0.0224524829536676 ]
  - [  -0.0231067463755608, -0.0069899260997772,  0.0224541500210762 ]
  - [  -0.0230477526783943, -0.0070156026631594,  0.0224071573466063 ]
  - [  -0.0016086436808109, -0.0004881061613560, -0.0224583707749844 ]
  - [   0.0011081881821156, -0.0031321002170444, -0.0189780648797750 ]
  - [  -0.0013041161000729,  0.0018926532939076, -0.0199481360614300 ]
  - [  -0.0021165832877159, -0.0005532922223210, -0.0217033047229052 ]
  - [  -0.0017914697527885, -0.0005481289699674, -0.0222885608673096 ]
  - [  -0.0018449462950230, -0.0004392825067043, -0.0220573060214520 ]
  - [  -0.0017737895250320, -0.0006286678835750, -0.0221309326589108 ]
  - [  -0.0017065554857254, -0.0005113035440445, -0.0220392253249884 ]
- atom:    9
  displacement:
    [  -0.0100000000000000,  0.0000000000000000,  0.0000000000000000 ]
  forces:
  - [   0.0098492279648781,  0.0031125303357840,  0.0082108797505498 ]
  - [   0.0098288133740425,  0.0028817709535360,  0.0082832248881459 ]
  - [   0.0098236650228500,  0.0030810758471489,  0.0083034345880151 ]
  - [   0.0099133923649788,  0.0027746241539717,  0.0078720841556787 ]
  - [   0.0095465704798698,  0.0028660465031862,  0.0080417618155479 ]
  - [   0.0089305117726326,  0.0031556971371174,  0.0089829936623573 ]
  - [   0.0094317197799683,  0.0026764739304781,  0.0086944159120321 ]
  - [   0.0101718902587891,  0.0030077211558819,  0.0084371604025364 ]
  - [  -0.0076393899507821, -0.0064472099766135,  0.0084973443299532 ]
  - [  -0.0305011048913002, -0.0098442342132330,  0.0071439724415541 ]
  - [  -0.0311772674322128, -0.0088184066116810,  0.0071419179439545 ]
  - [  -0.0323413386940956, -0.0087949018925428,  0.0070476345717907 ]
  - [  -0.0321653336286545, -0.0097627909854054,  0.0070627797394991 ]
  - [  -0.0321564339101315, -0.0097333267331123,  0.0070750229060650 ]
  - [  -0.0321492105722427, -0.0097438292577863,  0.0070749018341303 ]
  - [  -0.0321791768074036, -0.0097260018810630,  0.0070800110697746 ]
  - [   0.0223087780177593,  0.0066322274506092, -0.0108747398480773 ]
  - [   0.0229893475770950,  0.0071259941905737, -0.0099497912451625 ]
  - [   0.0230013132095337,  0.0068803913891315, -0.0099952705204487 ]
  - [   0.0236561074852943,  0.0073825344443321, -0.0104581769555807 ]
  - [   0.0230915062129498,  0.0069398097693920, -0.0099168093875051 ]
  - [   0.0231256857514381,  0.0069897547364235, -0.0099811665713787 ]
  - [   0.0231087282299995,  0.0070140175521374, -0.0099336188286543 ]
  - [   0.0230831168591976,  0.0070632603019476, -0.0098728807643056 ]
  - [   0.0240966826677322,  0.0073463134467602, -0.0051532471552491 ]
  - [   0.0221752002835274,  0.0091035934165120, -0.0025529591366649 ]
  - [   0.0242018774151802,  0.0058381445705891, -0.0040270462632179 ]
  - [   0.0248979069292545,  0.0074350424110889, -0.0049878992140293 ]
  - [   0.0242381282150745,  0.0073511600494385, -0.0055825682356954 ]
  - [   0.0244420729577541,  0.0072185667231679, -0.0052684824913740 ]
  - [   0.0243174247443676,  0.0074850842356682, -0.0052928328514099 ]
  - [   0.0244595445692539,  0.0073540769517422, -0.0056863594800234 ]
  - [  -0.0315562039613724, -0.0096864961087704,  0.0233345702290535 ]
  - [  -0.0313000828027725, -0.0064003225415945,  0.0220444481819868 ]
  - [  -0.0276623666286469, -0.0104498397558928,  0.0220652334392071 ]