phonopy:
  version: "2.37.1"
  frequency_unit_conversion_factor: 15.633302
  symmetry_tolerance: 1.00000e-05

space_group:
  type: "P1"
  number: 1
  Hall_symbol: "P 1"

primitive_matrix:
- [ -1.000000000000000, -1.000000000000000, -1.000000000000000 ]
- [  0.000000000000000,  0.000000000000000,  1.000000000000000 ]
- [  0.000000000000000,  1.000000000000000,  0.000000000000000 ]

supercell_matrix:
- [   3,   0,   0 ]
- [   0,   2,   0 ]
- [   0,   0,   2 ]

primitive_cell:
  lattice:
  - [    -4.458678752753446,     0.000000000000000,     0.000000000000000 ] # a
  - [    -2.228261403728482,     0.141464373016248,     4.972864615130037 ] # b
  - [    -2.229336987247535,     5.267655037007208,     0.000000000000000 ] # c
  points:
  - symbol: Li # 1
    coordinates: [  0.599900451861892,  0.259250801622621,  0.550030991773964 ]
    mass: 6.940000
  - symbol: Li # 2
    coordinates: [  0.790703757048462,  0.482124371722337,  0.946335056265727 ]
    mass: 6.940000
  - symbol: Sn # 3
    coordinates: [  0.995092006660951,  0.660209413219226,  0.358727635956757 ]
    mass: 118.710000
  - symbol: Sn # 4
    coordinates: [  0.194775771059693,  0.870710882014957,  0.749077383844667 ]
    mass: 118.710000
  - symbol: Sn # 5
    coordinates: [  0.395051880175748,  0.080908997863238,  0.138591512546720 ]
    mass: 118.710000
  reciprocal_lattice: # without 2pi
  - [    -0.224281688691398,    -0.094918794159715,    -0.097796871704723 ] # a*
  - [    -0.000000000000000,     0.000000000000000,     0.201091338171058 ] # b*
  - [    -0.000000000000000,     0.189837791764008,    -0.005400365034064 ] # c*

unit_cell:
  lattice:
  - [     4.458678752753446,     0.000000000000000,     0.000000000000000 ] # a
  - [     2.229341765505911,     5.267655037007208,     0.000000000000000 ] # b
  - [     2.230417349024965,     0.141464373016248,     4.972864615130037 ] # c
  points:
  - symbol: Li # 1
    coordinates: [  0.590817754741523,  0.550030991773964,  0.259250801622621 ]
    mass: 6.940000
    reduced_to: 1
  - symbol: Li # 2
    coordinates: [  0.780836814963474,  0.946335056265727,  0.482124371722337 ]
    mass: 6.940000
    reduced_to: 2
  - symbol: Sn # 3
    coordinates: [  0.985970944163066,  0.358727635956757,  0.660209413219226 ]
    mass: 118.710000
    reduced_to: 3
  - symbol: Sn # 4
    coordinates: [  0.185435963080683,  0.749077383844667,  0.870710882014957 ]
    mass: 118.710000
    reduced_to: 4
  - symbol: Sn # 5
    coordinates: [  0.385447609414295,  0.138591512546720,  0.080908997863238 ]
    mass: 118.710000
    reduced_to: 5

supercell:
  lattice:
  - [    13.376036258260338,     0.000000000000000,     0.000000000000000 ] # a
  - [     4.458683531011822,    10.535310074014417,     0.000000000000000 ] # b
  - [     4.460834698049929,     0.282928746032495,     9.945729230260074 ] # c
  points:
  - symbol: Li # 1
    coordinates: [  0.196939251580508,  0.275015495886982,  0.129625400811311 ]
    mass: 6.940000
    reduced_to: 1
  - symbol: Li # 2
    coordinates: [  0.530272584913841,  0.275015495886982,  0.129625400811311 ]
    mass: 6.940000
    reduced_to: 1
  - symbol: Li # 3
    coordinates: [  0.863605918247174,  0.275015495886982,  0.129625400811311 ]
    mass: 6.940000
    reduced_to: 1
  - symbol: Li # 4
    coordinates: [  0.196939251580508,  0.775015495886982,  0.129625400811311 ]
    mass: 6.940000
    reduced_to: 1
  - symbol: Li # 5
    coordinates: [  0.530272584913841,  0.775015495886982,  0.129625400811311 ]
    mass: 6.940000
    reduced_to: 1
  - symbol: Li # 6
    coordinates: [  0.863605918247174,  0.775015495886982,  0.129625400811311 ]
    mass: 6.940000
    reduced_to: 1
  - symbol: Li # 7
    coordinates: [  0.196939251580508,  0.275015495886982,  0.629625400811311 ]
    mass: 6.940000
    reduced_to: 1
  - symbol: Li # 8
    coordinates: [  0.530272584913841,  0.275015495886982,  0.629625400811311 ]
    mass: 6.940000
    reduced_to: 1
  - symbol: Li # 9
    coordinates: [  0.863605918247174,  0.275015495886982,  0.629625400811311 ]
    mass: 6.940000
    reduced_to: 1
  - symbol: Li # 10
    coordinates: [  0.196939251580508,  0.775015495886982,  0.629625400811311 ]
    mass: 6.940000
    reduced_to: 1
  - symbol: Li # 11
    coordinates: [  0.530272584913841,  0.775015495886982,  0.629625400811311 ]
    mass: 6.940000
    reduced_to: 1
  - symbol: Li # 12
    coordinates: [  0.863605918247174,  0.775015495886982,  0.629625400811311 ]
    mass: 6.940000
    reduced_to: 1
  - symbol: Li # 13
    coordinates: [  0.260278938321158,  0.473167528132863,  0.241062185861169 ]
    mass: 6.940000
    reduced_to: 13
  - symbol: Li # 14
    coordinates: [  0.593612271654491,  0.473167528132863,  0.241062185861169 ]
    mass: 6.940000
    reduced_to: 13
  - symbol: Li # 15
    coordinates: [  0.926945604987825,  0.473167528132863,  0.241062185861169 ]
    mass: 6.940000
    reduced_to: 13
  - symbol: Li # 16
    coordinates: [  0.260278938321158,  0.973167528132863,  0.241062185861169 ]
    mass: 6.940000
    reduced_to: 13
  - symbol: Li # 17
    coordinates: [  0.593612271654491,  0.973167528132863,  0.241062185861169 ]
    mass: 6.940000
    reduced_to: 13
  - symbol: Li # 18
    coordinates: [  0.926945604987825,  0.973167528132863,  0.241062185861169 ]
    mass: 6.940000
    reduced_to: 13
  - symbol: Li # 19
    coordinates: [  0.260278938321158,  0.473167528132863,  0.741062185861169 ]
    mass: 6.940000
    reduced_to: 13
  - symbol: Li # 20
    coordinates: [  0.593612271654491,  0.473167528132863,  0.741062185861169 ]
    mass: 6.940000
    reduced_to: 13
  - symbol: Li # 21
    coordinates: [  0.926945604987825,  0.473167528132863,  0.741062185861169 ]
    mass: 6.940000
    reduced_to: 13
  - symbol: Li # 22
    coordinates: [  0.260278938321158,  0.973167528132863,  0.741062185861169 ]
    mass: 6.940000
    reduced_to: 13
  - symbol: Li # 23
    coordinates: [  0.593612271654491,  0.973167528132863,  0.741062185861169 ]
    mass: 6.940000
    reduced_to: 13
  - symbol: Li # 24
    coordinates: [  0.926945604987825,  0.973167528132863,  0.741062185861169 ]
    mass: 6.940000
    reduced_to: 13
  - symbol: Sn # 25
    coordinates: [  0.328656981387689,  0.179363817978378,  0.330104706609613 ]
    mass: 118.710000
    reduced_to: 25
  - symbol: Sn # 26
    coordinates: [  0.661990314721022,  0.179363817978378,  0.330104706609613 ]
    mass: 118.710000
    reduced_to: 25
  - symbol: Sn # 27
    coordinates: [  0.995323648054355,  0.179363817978378,  0.330104706609613 ]
    mass: 118.710000
    reduced_to: 25
  - symbol: Sn # 28
    coordinates: [  0.328656981387689,  0.679363817978378,  0.330104706609613 ]
    mass: 118.710000
    reduced_to: 25
  - symbol: Sn # 29
    coordinates: [  0.661990314721022,  0.679363817978378,  0.330104706609613 ]
    mass: 118.710000
    reduced_to: 25
  - symbol: Sn # 30
    coordinates: [  0.995323648054355,  0.679363817978378,  0.330104706609613 ]
    mass: 118.710000
    reduced_to: 25
  - symbol: Sn # 31
    coordinates: [  0.328656981387689,  0.179363817978378,  0.830104706609613 ]
    mass: 118.710000
    reduced_to: 25
  - symbol: Sn # 32
    coordinates: [  0.661990314721022,  0.179363817978378,  0.830104706609613 ]
    mass: 118.710000
    reduced_to: 25
  - symbol: Sn # 33
    coordinates: [  0.995323648054355,  0.179363817978378,  0.830104706609613 ]
    mass: 118.710000
    reduced_to: 25
  - symbol: Sn # 34
    coordinates: [  0.328656981387689,  0.679363817978378,  0.830104706609613 ]
    mass: 118.710000
    reduced_to: 25
  - symbol: Sn # 35
    coordinates: [  0.661990314721022,  0.679363817978378,  0.830104706609613 ]
    mass: 118.710000
    reduced_to: 25
  - symbol: Sn # 36
    coordinates: [  0.995323648054355,  0.679363817978378,  0.830104706609613 ]
    mass: 118.710000
    reduced_to: 25
  - symbol: Sn # 37
    coordinates: [  0.061811987693561,  0.374538691922333,  0.435355441007478 ]
    mass: 118.710000
    reduced_to: 37
  - symbol: Sn # 38
    coordinates: [  0.395145321026894,  0.374538691922333,  0.435355441007478 ]
    mass: 118.710000
    reduced_to: 37
  - symbol: Sn # 39
    coordinates: [  0.728478654360228,  0.374538691922333,  0.435355441007478 ]
    mass: 118.710000
    reduced_to: 37
  - symbol: Sn # 40
    coordinates: [  0.061811987693561,  0.874538691922333,  0.435355441007478 ]
    mass: 118.710000
    reduced_to: 37
  - symbol: Sn # 41
    coordinates: [  0.395145321026894,  0.874538691922333,  0.435355441007478 ]
    mass: 118.710000
    reduced_to: 37
  - symbol: Sn # 42
    coordinates: [  0.728478654360228,  0.874538691922333,  0.435355441007478 ]
    mass: 118.710000
    reduced_to: 37
  - symbol: Sn # 43
    coordinates: [  0.061811987693561,  0.374538691922333,  0.935355441007478 ]
    mass: 118.710000
    reduced_to: 37
  - symbol: Sn # 44
    coordinates: [  0.395145321026894,  0.374538691922333,  0.935355441007478 ]
    mass: 118.710000
    reduced_to: 37
  - symbol: Sn # 45
    coordinates: [  0.728478654360228,  0.374538691922333,  0.935355441007478 ]
    mass: 118.710000
    reduced_to: 37
  - symbol: Sn # 46
    coordinates: [  0.061811987693561,  0.874538691922333,  0.935355441007478 ]
    mass: 118.710000
    reduced_to: 37
  - symbol: Sn # 47
    coordinates: [  0.395145321026894,  0.874538691922333,  0.935355441007478 ]
    mass: 118.710000
    reduced_to: 37
  - symbol: Sn # 48
    coordinates: [  0.728478654360228,  0.874538691922333,  0.935355441007478 ]
    mass: 118.710000
    reduced_to: 37
  - symbol: Sn # 49
    coordinates: [  0.128482536471432,  0.069295756273360,  0.040454498931619 ]
    mass: 118.710000
    reduced_to: 49
  - symbol: Sn # 50
    coordinates: [  0.461815869804765,  0.069295756273360,  0.040454498931619 ]
    mass: 118.710000
    reduced_to: 49
  - symbol: Sn # 51
    coordinates: [  0.795149203138098,  0.069295756273360,  0.040454498931619 ]
    mass: 118.710000
    reduced_to: 49
  - symbol: Sn # 52
    coordinates: [  0.128482536471432,  0.569295756273360,  0.040454498931619 ]
    mass: 118.710000
    reduced_to: 49
  - symbol: Sn # 53
    coordinates: [  0.461815869804765,  0.569295756273360,  0.040454498931619 ]
    mass: 118.710000
    reduced_to: 49
  - symbol: Sn # 54
    coordinates: [  0.795149203138098,  0.569295756273360,  0.040454498931619 ]
    mass: 118.710000
    reduced_to: 49
  - symbol: Sn # 55
    coordinates: [  0.128482536471432,  0.069295756273360,  0.540454498931619 ]
    mass: 118.710000
    reduced_to: 49
  - symbol: Sn # 56
    coordinates: [  0.461815869804765,  0.069295756273360,  0.540454498931619 ]
    mass: 118.710000
    reduced_to: 49
  - symbol: Sn # 57
    coordinates: [  0.795149203138098,  0.069295756273360,  0.540454498931619 ]
    mass: 118.710000
    reduced_to: 49
  - symbol: Sn # 58
    coordinates: [  0.128482536471432,  0.569295756273360,  0.540454498931619 ]
    mass: 118.710000
    reduced_to: 49
  - symbol: Sn # 59
    coordinates: [  0.461815869804765,  0.569295756273360,  0.540454498931619 ]
    mass: 118.710000
    reduced_to: 49
  - symbol: Sn # 60
    coordinates: [  0.795149203138098,  0.569295756273360,  0.540454498931619 ]
    mass: 118.710000
    reduced_to: 49

displacements:
- atom:    1
  displacement:
    [   0.0100000000000000,  0.0000000000000000,  0.0000000000000000 ]
  forces:
  - [  -0.0147515600547194,  0.0372650027275085, -0.0004902752116323 ]
  - [  -0.0008267042576335,  0.0372836738824844, -0.0004776753485203 ]
  - [  -0.0008275157306343,  0.0372446589171886, -0.0005718981847167 ]
  - [  -0.0008337664185092,  0.0372321717441082, -0.0005658436566591 ]
  - [  -0.0007772106910124,  0.0372776351869106, -0.0005452316254377 ]
  - [  -0.0007759943255223,  0.0372762009501457, -0.0004725577309728 ]
  - [  -0.0006684803520329,  0.0371676832437515, -0.0006206631660461 ]
  - [  -0.0007370980456471,  0.0373588725924492, -0.0002825297415257 ]
  - [  -0.0007364713819697,  0.0372546613216400, -0.0006720330566168 ]
  - [  -0.0008000921225175,  0.0372802317142487, -0.0004951898008585 ]
  - [  -0.0007934981258586,  0.0372438915073872, -0.0005321577191353 ]
  - [  -0.0007940898067318,  0.0372588783502579, -0.0005516773089767 ]
  - [   0.0022972775623202, -0.0309564732015133, -0.0015137465670705 ]
  - [   0.0015720322262496, -0.0317570716142654, -0.0020654490217566 ]
  - [   0.0022735432721674, -0.0325350463390350, -0.0026137214154005 ]
  - [   0.0015940235462040, -0.0317564234137535, -0.0020716302096844 ]
  - [   0.0016916298773140, -0.0319235622882843, -0.0019923672080040 ]
  - [   0.0016888738609850, -0.0315873175859451, -0.0021442696452141 ]
  - [   0.0015353523194790, -0.0317661017179489, -0.0020652320235968 ]
  - [   0.0009001903235912, -0.0320260673761368, -0.0015889126807451 ]
  - [   0.0009268131107092, -0.0314852446317673, -0.0025430526584387 ]
  - [   0.0014880734961480, -0.0317245163023472, -0.0020131431519985 ]
  - [   0.0015405796002597, -0.0317524150013924, -0.0021339422091842 ]
  - [   0.0015550932148471, -0.0317911021411419, -0.0020580422133207 ]
  - [   0.0011789158452302,  0.0025165826082230,  0.0051014535129070 ]
  - [  -0.0011497165542096,  0.0034549841657281,  0.0024896673858166 ]
  - [   0.0011150147765875,  0.0043727410957217, -0.0000567734241486 ]
  - [  -0.0014554220251739,  0.0033437665551901,  0.0024863444268703 ]
  - [  -0.0014081678818911,  0.0035439860075712,  0.0025061778724194 ]
  - [  -0.0012823292054236,  0.0034754797816277,  0.0024683736264706 ]
  - [  -0.0018309331499040,  0.0034782802686095,  0.0025358349084854 ]
  - [  -0.0014926253352314,  0.0035488996654749,  0.0025144144892693 ]
  - [  -0.0014948807656765,  0.0033543705940247,  0.0024151541292667 ]
  - [  -0.0013399531599134,  0.0034677200019360,  0.0024981349706650 ]
  - [  -0.0012457856209949,  0.0034876447170973,  0.0025178268551826 ]
  - [  -0.0012824151199311,  0.0034079439938068,  0.0024395138025284 ]
  - [  -0.0003698924556375, -0.0053285527974367,  0.0006545652286150 ]
  - [  -0.0005183441098779, -0.0053170984610915,  0.0006581982015632 ]
  - [  -0.0005394564941525, -0.0053440439514816,  0.0006674843607470 ]
  - [  -0.0005349001148716, -0.0053729992359877,  0.0006851493380964 ]
  - [  -0.0005434225895442, -0.0053069498389959,  0.0006374376825988 ]
  - [  -0.0004453778674360, -0.0053168013691902,  0.0006640413776040 ]
  - [   0.0025753979571164, -0.0066125895828009,  0.0036636972799897 ]
  - [   0.0026606214232743, -0.0039944602176547, -0.0024406048469245 ]
  - [  -0.0002581408189144, -0.0053254836238921,  0.0006567682139575 ]
  - [  -0.0003972307604272, -0.0052197189070284,  0.0007144934497774 ]
  - [  -0.0002839834778570, -0.0052908421494067,  0.0006341994157992 ]
  - [  -0.0003797847894020, -0.0054790596477687,  0.0006459066644311 ]
  - [   0.0022615836933255, -0.0017821658402681,  0.0000769868493080 ]
  - [   0.0022770343348384, -0.0055506750941277, -0.0012205280363560 ]
  - [   0.0011403756216168, -0.0036202389746904, -0.0005467906594276 ]
  - [   0.0008509355830029, -0.0036598779261112, -0.0005455426871777 ]
  - [   0.0010384162887931, -0.0036393851041794, -0.0005632303655148 ]
  - [   0.0010499004274607, -0.0036046728491783, -0.0005505606532097 ]
  - [   0.0011163377203047, -0.0035928729921579, -0.0004853680729866 ]
  - [   0.0011188855860382, -0.0036927703768015, -0.0005004554986954 ]
  - [   0.0010704207234085, -0.0035953866317868, -0.0006778165698051 ]
  - [   0.0009828926995397, -0.0036491174250841, -0.0005358643829823 ]
  - [   0.0010709420312196, -0.0036422340199351, -0.0006034113466740 ]
  - [   0.0010040472261608, -0.0035967100411654, -0.0005235970020294 ]
- atom:    1
  displacement:
    [  -0.0100000000000000,  0.0000000000000000,  0.0000000000000000 ]
  forces:
  - [   0.0131592955440283,  0.0372833088040352, -0.0005314620211720 ]
  - [  -0.0007632302585989,  0.0372388698160648, -0.0005748169496655 ]
  - [  -0.0007639538962394,  0.0372770503163338, -0.0004811249673367 ]
  - [  -0.0007569688605145,  0.0372926034033298, -0.0004890086129308 ]
  - [  -0.0008155136601999,  0.0372470170259476, -0.0005111666396260 ]
  - [  -0.0008143656887114,  0.0372437052428722, -0.0005829231813550 ]
  - [  -0.0009214947931468,  0.0373528748750687, -0.0004281941801310 ]
  - [  -0.0008558904519305,  0.0371627211570740, -0.0007669534534216 ]
  - [  -0.0008553405059502,  0.0372641757130623, -0.0003809267655015 ]
  - [  -0.0007914419984445,  0.0372412651777267, -0.0005572168156505 ]
  - [  -0.0007978693465702,  0.0372777953743935, -0.0005209287628531 ]
  - [  -0.0007983214454725,  0.0372629091143608, -0.0005010114982724 ]
  - [   0.0007416972657666, -0.0325404107570648, -0.0026121465489268 ]
  - [   0.0014532663626596, -0.0317554362118244, -0.0020732749253511 ]
  - [   0.0007374132401310, -0.0309626515954733, -0.0015135305002332 ]
  - [   0.0014297475572675, -0.0317488387227058, -0.0020693093538284 ]
  - [   0.0013362100580707, -0.0315912067890167, -0.0021461527794600 ]
  - [   0.0013348849024624, -0.0319271758198738, -0.0019947094842792 ]
  - [   0.0014899438247085, -0.0317526310682297, -0.0020672334358096 ]
  - [   0.0021193493157625, -0.0314897373318672, -0.0025470135733485 ]
  - [   0.0021057529374957, -0.0320300571620464, -0.0015903171151876 ]
  - [   0.0015365404542536, -0.0317872241139412, -0.0021227048709989 ]
  - [   0.0014836495975032, -0.0317600741982460, -0.0020036958158016 ]
  - [   0.0014718720922247, -0.0317208170890808, -0.0020799022167921 ]
  - [  -0.0036527304910123,  0.0043702190741897, -0.0000447146594524 ]
  - [  -0.0013808920048177,  0.0034574968740344,  0.0024781972169876 ]
  - [  -0.0037039082963020,  0.0025120554491878,  0.0051154196262360 ]
  - [  -0.0010751603404060,  0.0035646334290504,  0.0024861022830009 ]
  - [  -0.0011196475243196,  0.0033646095544100,  0.0024672970175743 ]
  - [  -0.0012474206741899,  0.0034333895891905,  0.0025059431791306 ]
  - [  -0.0006990488036536,  0.0034489985555410,  0.0024535953998566 ]
  - [  -0.0010356609709561,  0.0033697597682476,  0.0024596750736237 ]
  - [  -0.0010353187099099,  0.0035615451633930,  0.0025566965341568 ]
  - [  -0.0011897810036317,  0.0034401118755341,  0.0024718344211578 ]
  - [  -0.0012879121350124,  0.0034212023019791,  0.0024538263678551 ]
  - [  -0.0012467675842345,  0.0035006748512387,  0.0025319010019302 ]
  - [  -0.0005929402541369, -0.0053345491178334,  0.0006512302788906 ]
  - [  -0.0004435118753463, -0.0053415158763528,  0.0006710210000165 ]
  - [  -0.0004255101084709, -0.0053152022883296,  0.0006607570103370 ]
  - [  -0.0004262973670848, -0.0052914116531610,  0.0006375331431627 ]
  - [  -0.0004198418173473, -0.0053567979484797,  0.0006870529614389 ]
  - [  -0.0005176632548682, -0.0053491331636906,  0.0006617573089898 ]
  - [  -0.0036156168207526, -0.0040003512986004, -0.0024301134981215 ]
  - [  -0.0035481890663505, -0.0066161043941975,  0.0036745029501617 ]
  - [  -0.0007056145113893, -0.0053342571482062,  0.0006716921925545 ]
  - [  -0.0005662229377776, -0.0054406751878560,  0.0006143118953332 ]
  - [  -0.0006769359461032, -0.0053693284280598,  0.0006964100757614 ]
  - [  -0.0005840793601237, -0.0051803826354444,  0.0006840469432063 ]
  - [  -0.0002307794638909, -0.0055290572345257, -0.0012080557644367 ]
  - [  -0.0001879699993879, -0.0017613098025322,  0.0000879727303982 ]
  - [   0.0009195099119097, -0.0036358125507832, -0.0005592033267021 ]
  - [   0.0012074991827831, -0.0036202091723680, -0.0005565956234932 ]
  - [   0.0010215297807008, -0.0036216787993908, -0.0005466826260090 ]
  - [   0.0010077331680804, -0.0036570373922586, -0.0005572997033596 ]
  - [   0.0009405220625922, -0.0036618048325181, -0.0006227381527424 ]
  - [   0.0009361314587295, -0.0035602999851108, -0.0006110444664955 ]
  - [   0.0009951816173270, -0.0036585684865713, -0.0004345960915089 ]
  - [   0.0010769686195999, -0.0036090109497309, -0.0005724914371967 ]
  - [   0.0009895015973598, -0.0036172801628709, -0.0005045346915722 ]
  - [   0.0010556022170931, -0.0036610020324588, -0.0005849972367287 ]
- atom:    1
  displacement:
    [   0.0038974652733198,  0.0092092217067061,  0.0000000000000000 ]
  forces:
  - [  -0.0062337694689631,  0.0259465351700783,  0.0006702197715640 ]
  - [  -0.0008237062720582,  0.0372577942907810, -0.0004568826407194 ]
  - [  -0.0007867474341765,  0.0372412875294685, -0.0005025314167142 ]
  - [  -0.0008399461512454,  0.0373410694301128, -0.0005051214247942 ]
  - [  -0.0007739296415821,  0.0373238921165466, -0.0004735030233860 ]
  - [  -0.0007720506982878,  0.0373243093490601, -0.0005622906610370 ]
  - [  -0.0008312052814290,  0.0372527129948139, -0.0005537271499634 ]
  - [  -0.0007781231543049,  0.0373165011405945, -0.0003470741212368 ]
  - [  -0.0006811458151788,  0.0372761301696301, -0.0006648069247603 ]
  - [  -0.0007795682176948,  0.0372823067009449, -0.0005115875974298 ]
  - [  -0.0007972152670845,  0.0372547805309296, -0.0005493005737662 ]
  - [  -0.0008104921435006,  0.0372605770826340, -0.0005324091762304 ]
  - [   0.0025620532687753, -0.0307748373597860, -0.0014278823509812 ]
  - [   0.0015350868925452, -0.0317565463483334, -0.0020734341815114 ]
  - [   0.0010838763555512, -0.0314161106944084, -0.0018692519515753 ]
  - [   0.0015407042810693, -0.0308580864220858, -0.0024072490632534 ]
  - [   0.0014274376444519, -0.0317573398351669, -0.0021047443151474 ]
  - [   0.0017382956575602, -0.0316215157508850, -0.0021415296941996 ]
  - [   0.0015154043212533, -0.0317842327058315, -0.0021304786205292 ]
  - [   0.0010253842920065, -0.0318827852606773, -0.0016707368195057 ]
  - [   0.0015351874753833, -0.0317671820521355, -0.0022315662354231 ]
  - [   0.0015286577399820, -0.0315982736647129, -0.0019690031185746 ]
  - [   0.0015289566945285, -0.0316299349069595, -0.0020116008818150 ]
  - [   0.0014980646083131, -0.0318159572780132, -0.0020752409473062 ]
  - [  -0.0010999424848706,  0.0035953829064965,  0.0023345351219177 ]
  - [  -0.0012288948055357,  0.0034689819440246,  0.0025321654975414 ]
  - [   0.0004337560385466,  0.0043087620288134,  0.0003417506814003 ]
  - [  -0.0014697231817991,  0.0030362559482455,  0.0025104805827141 ]
  - [  -0.0011993305524811,  0.0033276258036494,  0.0024730116128922 ]
  - [  -0.0012643578229472,  0.0038438141345978,  0.0025244839489460 ]
  - [  -0.0014797367621213,  0.0035700611770153,  0.0038458853960037 ]
  - [  -0.0012749201850966,  0.0034044804051518,  0.0024564862251282 ]
  - [  -0.0014309935504571,  0.0033244024962187,  0.0024605728685856 ]
  - [  -0.0014234115369618,  0.0033260472118855,  0.0025426968932152 ]
  - [  -0.0012415521778166,  0.0034789163619280,  0.0024979859590530 ]
  - [  -0.0011583645828068,  0.0033441074192524,  0.0025563277304173 ]
  - [  -0.0004293548408896, -0.0051069306209683,  0.0011483003618196 ]
  - [  -0.0004294076934457, -0.0053199799731374,  0.0007368628284894 ]
  - [  -0.0005792204756290, -0.0053285202011466,  0.0007448871619999 ]
  - [  -0.0004905599635094, -0.0053512454032898,  0.0006337491795421 ]
  - [  -0.0005047576851211, -0.0053200442343950,  0.0006219996139407 ]
  - [  -0.0004802713228855, -0.0053023472428322,  0.0006835293024778 ]
  - [  -0.0006566050578840, -0.0055971983820200,  0.0007595862261951 ]
  - [   0.0021479059942067, -0.0045728553086519, -0.0016621374525130 ]
  - [  -0.0003913093823940, -0.0053286710754037,  0.0006720307283103 ]
  - [  -0.0003317233640701, -0.0047705448232591,  0.0006706431740895 ]
  - [  -0.0003863359452225, -0.0050815688446164,  0.0008242187905125 ]
  - [  -0.0005760315689258, -0.0052560083568096,  0.0007434161962010 ]
  - [   0.0024596059229225, -0.0015082992613316,  0.0000106915831566 ]
  - [   0.0005201727617532, -0.0029270472005010, -0.0004808604717255 ]
  - [   0.0010781153105199, -0.0036563295871019, -0.0005395710468292 ]
  - [   0.0009573793504387, -0.0000128690153360, -0.0006966665387154 ]
  - [   0.0010574732441455, -0.0036823134869337, -0.0006165355443954 ]
  - [   0.0010084740351886, -0.0036826767027378, -0.0006073862314224 ]
  - [   0.0010568792931736, -0.0036228075623512, -0.0005447678267956 ]
  - [   0.0010781330056489, -0.0035409918054938, -0.0005656406283379 ]
  - [   0.0010400407481939, -0.0035606594756246, -0.0006290301680565 ]
  - [   0.0010364090558141, -0.0036234399303794, -0.0006346516311169 ]
  - [   0.0010429720859975, -0.0037045041099191, -0.0006757788360119 ]
  - [   0.0009982462506741, -0.0035860575735569, -0.0005715452134609 ]
- atom:    1
  displacement:
    [  -0.0038974652733198, -0.0092092217067061,  0.0000000000000000 ]
  forces:
  - [   0.0046620033681393,  0.0484841912984848, -0.0016826484352350 ]
  - [  -0.0007690836209804,  0.0372655391693115, -0.0005970606580377 ]
  - [  -0.0008033628109843,  0.0372794717550278, -0.0005522072315216 ]
  - [  -0.0007543243700638,  0.0371807180345058, -0.0005511911585927 ]
  - [  -0.0008185418555513,  0.0371952801942825, -0.0005813427269459 ]
  - [  -0.0008152741938829,  0.0371953397989273, -0.0004940759390593 ]
  - [  -0.0007593876216561,  0.0372676998376846, -0.0004988014698029 ]
  - [  -0.0008157490519807,  0.0372048728168011, -0.0007041450589895 ]
  - [  -0.0009083301993087,  0.0372446142137051, -0.0003880485892296 ]
  - [  -0.0008118973346427,  0.0372387990355492, -0.0005412297323346 ]
  - [  -0.0007951150182635,  0.0372663848102093, -0.0005033314228058 ]
  - [  -0.0007808349328116,  0.0372608266770840, -0.0005207797512412 ]
  - [   0.0004896710161120, -0.0327143445611000, -0.0026922663673759 ]
  - [   0.0014900034293532, -0.0317563749849796, -0.0020655356347561 ]
  - [   0.0019407034851611, -0.0320991985499859, -0.0022679762914777 ]
  - [   0.0014831535518169, -0.0326855070888996, -0.0017182175070047 ]
  - [   0.0015972283435985, -0.0317544862627983, -0.0020348355174065 ]
  - [   0.0012852920917794, -0.0318926051259041, -0.0019964203238487 ]
  - [   0.0015111761167645, -0.0317326709628105, -0.0020067226141691 ]
  - [   0.0019945576786995, -0.0316307917237282, -0.0024651708081365 ]
  - [   0.0014920094981790, -0.0317461676895618, -0.0019091507419944 ]
  - [   0.0014941541012377, -0.0319179557263851, -0.0021691713482141 ]
  - [   0.0014963183784857, -0.0318849347531796, -0.0021285340189934 ]
  - [   0.0015289202565327, -0.0316979102790356, -0.0020625162869692 ]
  - [  -0.0014477120712399,  0.0033251969143748,  0.0026220232248306 ]
  - [  -0.0013024932704866,  0.0034428462386131,  0.0024373270571232 ]
  - [  -0.0029986288864166,  0.0026028277352452,  0.0046849437057972 ]
  - [  -0.0010631454642862,  0.0038756523281336,  0.0024593099951744 ]
  - [  -0.0013304905733094,  0.0035824375227094,  0.0025005862116814 ]
  - [  -0.0012652650475502,  0.0030525065958500,  0.0024416930973530 ]
  - [  -0.0010381364263594,  0.0033602844923735,  0.0011154748499393 ]
  - [  -0.0012523091863841,  0.0035096276551485,  0.0025173127651215 ]
  - [  -0.0010998742654920,  0.0035904943943024,  0.0025114715099335 ]
  - [  -0.0011057646479458,  0.0035783201456070,  0.0024276971817017 ]
  - [  -0.0012917740968987,  0.0034306701272726,  0.0024754479527473 ]
  - [  -0.0013720837887377,  0.0035610711202025,  0.0024152845144272 ]
  - [  -0.0005322382785380, -0.0055532325059175,  0.0001753635588102 ]
  - [  -0.0005318855401129, -0.0053380727767944,  0.0005935004446656 ]
  - [  -0.0003843146841973, -0.0053305579349399,  0.0005818206118420 ]
  - [  -0.0004737859999295, -0.0053151287138462,  0.0006913277320564 ]
  - [  -0.0004566329007503, -0.0053448434919119,  0.0007059969939291 ]
  - [  -0.0004823669441976, -0.0053630415350199,  0.0006427713669837 ]
  - [  -0.0002989508211613, -0.0050646690651774,  0.0005787080153823 ]
  - [  -0.0030536530539393, -0.0060763591900468,  0.0029380423948169 ]
  - [  -0.0005723453359678, -0.0053306696936488,  0.0006568050011992 ]
  - [  -0.0006282228860073, -0.0058863870799541,  0.0006595805753022 ]
  - [  -0.0005750461132266, -0.0055587189272046,  0.0005166010232642 ]
  - [  -0.0003879672731273, -0.0054047685116529,  0.0005862978287041 ]
  - [  -0.0004663870786317, -0.0058180838823318, -0.0011476539075375 ]
  - [   0.0015443894080818, -0.0043261311948299, -0.0006250068545341 ]
  - [   0.0009806363377720, -0.0035989414900541, -0.0005664415657520 ]
  - [   0.0010913442820311, -0.0071147875860333, -0.0004392303526402 ]
  - [   0.0010026216041297, -0.0035774027928710, -0.0004958473145962 ]
  - [   0.0010503091616556, -0.0035786479711533, -0.0005007907748222 ]
  - [   0.0010004190262407, -0.0036337934434414, -0.0005622506141663 ]
  - [   0.0009793676435947, -0.0037132333964109, -0.0005397386848927 ]
  - [   0.0010267423931509, -0.0036953426897526, -0.0004848092794418 ]
  - [   0.0010225994046777, -0.0036343513056636, -0.0004737898707390 ]
  - [   0.0010171029716730, -0.0035544726997614, -0.0004319772124290 ]
  - [   0.0010626564035192, -0.0036711264401674, -0.0005364790558815 ]
- atom:    1
  displacement:
    [   0.0040910177811152,  0.0002594730827649,  0.0091211976863743 ]
  forces:
  - [  -0.0064759273082018,  0.0380990765988827, -0.0147324167191982 ]
  - [  -0.0008521970594302,  0.0373119041323662, -0.0004365546628833 ]
  - [  -0.0007611660985276,  0.0373038090765476, -0.0004770746454597 ]
  - [  -0.0008470523171127,  0.0372898839414120, -0.0004933569580317 ]
  - [  -0.0007373743574135,  0.0372141897678375, -0.0005187466740608 ]
  - [  -0.0008020046516322,  0.0373277775943279, -0.0004926500841975 ]
  - [  -0.0008349580457434,  0.0372337847948074, -0.0004928903654218 ]
  - [  -0.0009055821574293,  0.0372193902730942, -0.0003962842747569 ]
  - [  -0.0005452119512483,  0.0373430177569389, -0.0005574980750680 ]
  - [  -0.0007690343190916,  0.0372712984681129, -0.0004724375903606 ]
  - [  -0.0008178704301827,  0.0372588261961937, -0.0005480637773871 ]
  - [  -0.0008007175638340,  0.0372387021780014, -0.0005549723282456 ]
  - [   0.0023550891783088, -0.0309953130781651, -0.0019267173483968 ]
  - [   0.0015403549186885, -0.0317623168230057, -0.0020716972649097 ]
  - [   0.0013095741160214, -0.0316538959741592, -0.0023652976378798 ]
  - [   0.0015445664757863, -0.0320773832499981, -0.0016042860224843 ]
  - [   0.0016467589884996, -0.0318837761878967, -0.0020574014633894 ]