phonopy:
  version: "2.37.1"
  frequency_unit_conversion_factor: 15.633302
  symmetry_tolerance: 1.00000e-05

space_group:
  type: "Cm"
  number: 8
  Hall_symbol: "C -2y"

primitive_matrix:
- [ -1.000000000000000,  0.000000000000000, -0.000000000000000 ]
- [  0.000000000000000, -1.000000000000000,  0.000000000000000 ]
- [  0.000000000000000,  0.000000000000000,  1.000000000000000 ]

supercell_matrix:
- [   2,   0,   0 ]
- [   0,   2,   0 ]
- [   0,   0,   2 ]

primitive_cell:
  lattice:
  - [    -6.214283010621907,     0.000000000000000,     0.000000000000000 ] # a
  - [    -5.311131176528207,    -3.226329302482933,     0.000000000000000 ] # b
  - [     1.682788005158618,     0.471065679814796,     6.640123791483314 ] # c
  points:
  - symbol: Li # 1
    coordinates: [  0.336253047544634,  0.336253036161518,  0.665788031719341 ]
    mass: 6.940000
  - symbol: Li # 2
    coordinates: [  0.656255068799862,  0.656255066861094,  0.313040528952715 ]
    mass: 6.940000
  - symbol: Li # 3
    coordinates: [  0.617410645746405,  0.617410654699895,  0.730908857536667 ]
    mass: 6.940000
  - symbol: Sn # 4
    coordinates: [  0.995737553310779,  0.995737549449169,  0.981292665914785 ]
    mass: 118.710000
  - symbol: Sn # 5
    coordinates: [  0.954443120059997,  0.954443132972137,  0.419300831507227 ]
    mass: 118.710000
  - symbol: Sn # 6
    coordinates: [  0.273233898020130,  0.273233892990752,  0.056335751205658 ]
    mass: 118.710000
  reciprocal_lattice: # without 2pi
  - [    -0.160919610241556,     0.264903262729864,     0.021988559091859 ] # a*
  - [    -0.000000000000000,    -0.309949762174126,     0.021988550215624 ] # b*
  - [    -0.000000000000000,    -0.000000000000000,     0.150599601965646 ] # c*

unit_cell:
  lattice:
  - [     6.214283010621909,     0.000000000000000,     0.000000000000000 ] # a
  - [     5.311131176528209,     3.226329302482933,     0.000000000000000 ] # b
  - [     1.682788005158619,     0.471065679814796,     6.640123791483315 ] # c
  points:
  - symbol: Li # 1
    coordinates: [  0.663746952455366,  0.663746963838482,  0.665788031719341 ]
    mass: 6.940000
    reduced_to: 1
  - symbol: Li # 2
    coordinates: [  0.343744931200138,  0.343744933138906,  0.313040528952715 ]
    mass: 6.940000
    reduced_to: 2
  - symbol: Li # 3
    coordinates: [  0.382589354253595,  0.382589345300105,  0.730908857536667 ]
    mass: 6.940000
    reduced_to: 3
  - symbol: Sn # 4
    coordinates: [  0.004262446689221,  0.004262450550831,  0.981292665914785 ]
    mass: 118.710000
    reduced_to: 4
  - symbol: Sn # 5
    coordinates: [  0.045556879940003,  0.045556867027863,  0.419300831507227 ]
    mass: 118.710000
    reduced_to: 5
  - symbol: Sn # 6
    coordinates: [  0.726766101979870,  0.726766107009248,  0.056335751205658 ]
    mass: 118.710000
    reduced_to: 6

supercell:
  lattice:
  - [    12.428566021243817,     0.000000000000000,     0.000000000000000 ] # a
  - [    10.622262353056417,     6.452658604965865,     0.000000000000000 ] # b
  - [     3.365576010317239,     0.942131359629591,    13.280247582966631 ] # c
  points:
  - symbol: Li # 1
    coordinates: [  0.331873476227683,  0.331873481919241,  0.332894015859670 ]
    mass: 6.940000
    reduced_to: 1
  - symbol: Li # 2
    coordinates: [  0.831873476227683,  0.331873481919241,  0.332894015859670 ]
    mass: 6.940000
    reduced_to: 1
  - symbol: Li # 3
    coordinates: [  0.331873476227683,  0.831873481919241,  0.332894015859670 ]
    mass: 6.940000
    reduced_to: 1
  - symbol: Li # 4
    coordinates: [  0.831873476227683,  0.831873481919241,  0.332894015859670 ]
    mass: 6.940000
    reduced_to: 1
  - symbol: Li # 5
    coordinates: [  0.331873476227683,  0.331873481919241,  0.832894015859670 ]
    mass: 6.940000
    reduced_to: 1
  - symbol: Li # 6
    coordinates: [  0.831873476227683,  0.331873481919241,  0.832894015859670 ]
    mass: 6.940000
    reduced_to: 1
  - symbol: Li # 7
    coordinates: [  0.331873476227683,  0.831873481919241,  0.832894015859670 ]
    mass: 6.940000
    reduced_to: 1
  - symbol: Li # 8
    coordinates: [  0.831873476227683,  0.831873481919241,  0.832894015859670 ]
    mass: 6.940000
    reduced_to: 1
  - symbol: Li # 9
    coordinates: [  0.171872465600069,  0.171872466569453,  0.156520264476358 ]
    mass: 6.940000
    reduced_to: 9
  - symbol: Li # 10
    coordinates: [  0.671872465600069,  0.171872466569453,  0.156520264476358 ]
    mass: 6.940000
    reduced_to: 9
  - symbol: Li # 11
    coordinates: [  0.171872465600069,  0.671872466569453,  0.156520264476358 ]
    mass: 6.940000
    reduced_to: 9
  - symbol: Li # 12
    coordinates: [  0.671872465600069,  0.671872466569453,  0.156520264476358 ]
    mass: 6.940000
    reduced_to: 9
  - symbol: Li # 13
    coordinates: [  0.171872465600069,  0.171872466569453,  0.656520264476358 ]
    mass: 6.940000
    reduced_to: 9
  - symbol: Li # 14
    coordinates: [  0.671872465600069,  0.171872466569453,  0.656520264476358 ]
    mass: 6.940000
    reduced_to: 9
  - symbol: Li # 15
    coordinates: [  0.171872465600069,  0.671872466569453,  0.656520264476358 ]
    mass: 6.940000
    reduced_to: 9
  - symbol: Li # 16
    coordinates: [  0.671872465600069,  0.671872466569453,  0.656520264476358 ]
    mass: 6.940000
    reduced_to: 9
  - symbol: Li # 17
    coordinates: [  0.191294677126798,  0.191294672650053,  0.365454428768334 ]
    mass: 6.940000
    reduced_to: 17
  - symbol: Li # 18
    coordinates: [  0.691294677126797,  0.191294672650053,  0.365454428768334 ]
    mass: 6.940000
    reduced_to: 17
  - symbol: Li # 19
    coordinates: [  0.191294677126798,  0.691294672650053,  0.365454428768334 ]
    mass: 6.940000
    reduced_to: 17
  - symbol: Li # 20
    coordinates: [  0.691294677126797,  0.691294672650053,  0.365454428768334 ]
    mass: 6.940000
    reduced_to: 17
  - symbol: Li # 21
    coordinates: [  0.191294677126798,  0.191294672650053,  0.865454428768334 ]
    mass: 6.940000
    reduced_to: 17
  - symbol: Li # 22
    coordinates: [  0.691294677126797,  0.191294672650053,  0.865454428768334 ]
    mass: 6.940000
    reduced_to: 17
  - symbol: Li # 23
    coordinates: [  0.191294677126798,  0.691294672650053,  0.865454428768334 ]
    mass: 6.940000
    reduced_to: 17
  - symbol: Li # 24
    coordinates: [  0.691294677126797,  0.691294672650053,  0.865454428768334 ]
    mass: 6.940000
    reduced_to: 17
  - symbol: Sn # 25
    coordinates: [  0.002131223344610,  0.002131225275415,  0.490646332957393 ]
    mass: 118.710000
    reduced_to: 25
  - symbol: Sn # 26
    coordinates: [  0.502131223344610,  0.002131225275415,  0.490646332957393 ]
    mass: 118.710000
    reduced_to: 25
  - symbol: Sn # 27
    coordinates: [  0.002131223344610,  0.502131225275415,  0.490646332957393 ]
    mass: 118.710000
    reduced_to: 25
  - symbol: Sn # 28
    coordinates: [  0.502131223344610,  0.502131225275415,  0.490646332957393 ]
    mass: 118.710000
    reduced_to: 25
  - symbol: Sn # 29
    coordinates: [  0.002131223344610,  0.002131225275415,  0.990646332957393 ]
    mass: 118.710000
    reduced_to: 25
  - symbol: Sn # 30
    coordinates: [  0.502131223344610,  0.002131225275415,  0.990646332957393 ]
    mass: 118.710000
    reduced_to: 25
  - symbol: Sn # 31
    coordinates: [  0.002131223344610,  0.502131225275415,  0.990646332957393 ]
    mass: 118.710000
    reduced_to: 25
  - symbol: Sn # 32
    coordinates: [  0.502131223344610,  0.502131225275415,  0.990646332957393 ]
    mass: 118.710000
    reduced_to: 25
  - symbol: Sn # 33
    coordinates: [  0.022778439970002,  0.022778433513932,  0.209650415753614 ]
    mass: 118.710000
    reduced_to: 33
  - symbol: Sn # 34
    coordinates: [  0.522778439970002,  0.022778433513932,  0.209650415753614 ]
    mass: 118.710000
    reduced_to: 33
  - symbol: Sn # 35
    coordinates: [  0.022778439970002,  0.522778433513931,  0.209650415753614 ]
    mass: 118.710000
    reduced_to: 33
  - symbol: Sn # 36
    coordinates: [  0.522778439970002,  0.522778433513931,  0.209650415753614 ]
    mass: 118.710000
    reduced_to: 33
  - symbol: Sn # 37
    coordinates: [  0.022778439970002,  0.022778433513932,  0.709650415753614 ]
    mass: 118.710000
    reduced_to: 33
  - symbol: Sn # 38
    coordinates: [  0.522778439970002,  0.022778433513932,  0.709650415753614 ]
    mass: 118.710000
    reduced_to: 33
  - symbol: Sn # 39
    coordinates: [  0.022778439970002,  0.522778433513931,  0.709650415753614 ]
    mass: 118.710000
    reduced_to: 33
  - symbol: Sn # 40
    coordinates: [  0.522778439970002,  0.522778433513931,  0.709650415753614 ]
    mass: 118.710000
    reduced_to: 33
  - symbol: Sn # 41
    coordinates: [  0.363383050989935,  0.363383053504624,  0.028167875602829 ]
    mass: 118.710000
    reduced_to: 41
  - symbol: Sn # 42
    coordinates: [  0.863383050989935,  0.363383053504624,  0.028167875602829 ]
    mass: 118.710000
    reduced_to: 41
  - symbol: Sn # 43
    coordinates: [  0.363383050989935,  0.863383053504624,  0.028167875602829 ]
    mass: 118.710000
    reduced_to: 41
  - symbol: Sn # 44
    coordinates: [  0.863383050989935,  0.863383053504624,  0.028167875602829 ]
    mass: 118.710000
    reduced_to: 41
  - symbol: Sn # 45
    coordinates: [  0.363383050989935,  0.363383053504624,  0.528167875602829 ]
    mass: 118.710000
    reduced_to: 41
  - symbol: Sn # 46
    coordinates: [  0.863383050989935,  0.363383053504624,  0.528167875602829 ]
    mass: 118.710000
    reduced_to: 41
  - symbol: Sn # 47
    coordinates: [  0.363383050989935,  0.863383053504624,  0.528167875602829 ]
    mass: 118.710000
    reduced_to: 41
  - symbol: Sn # 48
    coordinates: [  0.863383050989935,  0.863383053504624,  0.528167875602829 ]
    mass: 118.710000
    reduced_to: 41

displacements:
- atom:    1
  displacement:
    [   0.0100000000000000,  0.0000000000000000,  0.0000000000000000 ]
  forces:
  - [  -0.0258998926728964, -0.0029296176508069, -0.0030968263745308 ]
  - [  -0.0074664615094662, -0.0020685261115432,  0.0002367086708546 ]
  - [  -0.0074376966804266, -0.0021123513579369,  0.0002138465642929 ]
  - [  -0.0073694866150618, -0.0029876814223826,  0.0003048330545425 ]
  - [  -0.0073589086532593, -0.0020394409075379,  0.0002664029598236 ]
  - [  -0.0073283351957798, -0.0020517474040389,  0.0002362169325352 ]
  - [  -0.0073278341442347, -0.0020514214411378,  0.0002419427037239 ]
  - [  -0.0073246844112873, -0.0020706811919808,  0.0002022534608841 ]
  - [  -0.0161324404180050, -0.0045508528128266,  0.0062784627079964 ]
  - [  -0.0156178232282400, -0.0052247736603022,  0.0051761660724878 ]
  - [  -0.0163167361170053, -0.0041672307997942,  0.0055801738053560 ]
  - [  -0.0169781297445297, -0.0046512321569026,  0.0058057662099600 ]
  - [  -0.0164135023951530, -0.0047190859913826,  0.0060092173516750 ]
  - [  -0.0168254617601633, -0.0043671680614352,  0.0060081910341978 ]
  - [  -0.0166311953216791, -0.0050045577809215,  0.0060302605852485 ]
  - [  -0.0167075246572495, -0.0044868248514831,  0.0064423754811287 ]
  - [   0.0041437298059464,  0.0011742115020752, -0.0048294290900230 ]
  - [   0.0053202807903290,  0.0003211293369532, -0.0043454468250275 ]
  - [   0.0043470859527588,  0.0019795466214418, -0.0044634267687798 ]
  - [   0.0038131475448608,  0.0007438231259584, -0.0046648383140564 ]
  - [   0.0029535219073296,  0.0008408538997173, -0.0046991407871246 ]
  - [   0.0029234737157822,  0.0008142031729221, -0.0047338902950287 ]
  - [   0.0029451474547386,  0.0008285492658615, -0.0047847777605057 ]
  - [   0.0029287040233612,  0.0008058287203312, -0.0045970529317856 ]
  - [   0.0092478785663843,  0.0026603378355503,  0.0049234293401241 ]
  - [   0.0100578926503658,  0.0038760434836149,  0.0035959407687187 ]
  - [   0.0119777414947748,  0.0010498575866222,  0.0014016292989254 ]
  - [   0.0095729138702154,  0.0026442478410900,  0.0053797475993633 ]
  - [   0.0092649608850479,  0.0026535950601101,  0.0055341646075249 ]
  - [   0.0092895124107599,  0.0024323146790266,  0.0049583055078983 ]
  - [   0.0091466568410397,  0.0027617197483778,  0.0048960931599140 ]
  - [   0.0095197986811399,  0.0026590074412525,  0.0050902813673019 ]
  - [  -0.0308878663927317, -0.0086614405736327, -0.0270647127181292 ]
  - [  -0.0289321690797806, -0.0054136947728693, -0.0248305015265942 ]
  - [  -0.0255845375359058, -0.0110365180298686, -0.0237430930137634 ]
  - [  -0.0313317179679871, -0.0087519977241755, -0.0268659554421902 ]
  - [  -0.0310110580176115, -0.0086611183360219, -0.0270962230861187 ]
  - [  -0.0309522189199924, -0.0086543429642916, -0.0269588921219110 ]
  - [  -0.0308191329240799, -0.0086857397109270, -0.0269202701747417 ]
  - [  -0.0309662334620953, -0.0086889937520027, -0.0271929930895567 ]
  - [   0.0424300581216812,  0.0119873182848096,  0.0206181630492210 ]
  - [   0.0426330231130123,  0.0119140781462193,  0.0202075429260731 ]
  - [   0.0425668805837631,  0.0119363740086555,  0.0202260725200176 ]
  - [   0.0423106513917446,  0.0117323715239763,  0.0200463272631168 ]
  - [   0.0454219505190849,  0.0127835171297193,  0.0240433663129807 ]
  - [   0.0420006476342678,  0.0118730813264847,  0.0203740783035755 ]
  - [   0.0421935506165028,  0.0117273014038801,  0.0203224048018456 ]
  - [   0.0426118634641171,  0.0118377413600683,  0.0202371105551720 ]
- atom:    1
  displacement:
    [  -0.0100000000000000,  0.0000000000000000,  0.0000000000000000 ]
  forces:
  - [   0.0113412179052830, -0.0012353938072920,  0.0035367123782635 ]
  - [  -0.0071566961705685, -0.0020250063389540,  0.0001978613436222 ]
  - [  -0.0071823205798864, -0.0019793100655079,  0.0002206191420555 ]
  - [  -0.0072633065283298, -0.0011108666658401,  0.0001213289797306 ]
  - [  -0.0072673950344324, -0.0020544594153762,  0.0001660734415054 ]
  - [  -0.0072985012084246, -0.0020436877384782,  0.0001958273351192 ]
  - [  -0.0072983726859093, -0.0020428858697414,  0.0001916438341141 ]
  - [  -0.0072997082024813, -0.0020230673253536,  0.0002310350537300 ]
  - [  -0.0169324092566967, -0.0047078304924071,  0.0059587880969048 ]
  - [  -0.0174323767423630, -0.0040389276109636,  0.0070466436445713 ]
  - [  -0.0167442448437214, -0.0050857807509601,  0.0066613322123885 ]
  - [  -0.0160871427506208, -0.0046011349186301,  0.0064362268894911 ]
  - [  -0.0166528038680553, -0.0045387912541628,  0.0062348544597626 ]
  - [  -0.0162358283996582, -0.0048880255781114,  0.0062314206734300 ]
  - [  -0.0164314433932304, -0.0042511099018157,  0.0062090009450912 ]
  - [  -0.0163589324802160, -0.0047670416533947,  0.0057986779138446 ]
  - [   0.0016960874199867,  0.0004652291536331, -0.0046061053872108 ]
  - [   0.0006284788250923,  0.0013069231063128, -0.0050724744796753 ]
  - [   0.0015513375401497, -0.0003085397183895, -0.0049634128808975 ]
  - [   0.0021041482686996,  0.0008982531726360, -0.0047653466463089 ]
  - [   0.0029277205467224,  0.0008054375648499, -0.0047350749373436 ]
  - [   0.0029589235782623,  0.0008313599973917, -0.0046985521912575 ]
  - [   0.0029338896274567,  0.0008180774748325, -0.0046476870775223 ]
  - [   0.0029528290033340,  0.0008411593735218, -0.0048358067870140 ]
  - [   0.0096368826925755,  0.0026256442070007,  0.0055642426013947 ]
  - [   0.0088298395276070,  0.0014118095859885,  0.0068743191659451 ]
  - [   0.0068543665111065,  0.0042723715305328,  0.0091542378067970 ]
  - [   0.0093109477311373,  0.0026429686695337,  0.0051182322204113 ]
  - [   0.0096143595874310,  0.0026338528841734,  0.0049530975520611 ]
  - [   0.0095900092273951,  0.0028538797050714,  0.0055341422557831 ]
  - [   0.0097324289381504,  0.0025212503969669,  0.0055963508784771 ]
  - [   0.0093600098043680,  0.0026237410493195,  0.0053951740264893 ]
  - [  -0.0311819799244404, -0.0087147122249007, -0.0271435510367155 ]
  - [  -0.0331350043416023, -0.0119898598641157, -0.0294009465724230 ]
  - [  -0.0366023033857346, -0.0062740505672991, -0.0305726826190948 ]
  - [  -0.0307550635188818, -0.0086295362561941, -0.0273330397903919 ]
  - [  -0.0310572311282158, -0.0087164044380188, -0.0271167904138565 ]
  - [  -0.0311153642833233, -0.0087209250777960, -0.0272479746490717 ]
  - [  -0.0312455948442221, -0.0086896931752563, -0.0272935088723898 ]
  - [  -0.0310971457511187, -0.0086830789223313, -0.0270227510482073 ]
  - [   0.0425646267831326,  0.0118027748540044,  0.0198633633553982 ]
  - [   0.0423622354865074,  0.0118771502748132,  0.0202749967575073 ]
  - [   0.0424316748976707,  0.0118595669046044,  0.0202549286186695 ]
  - [   0.0426838099956512,  0.0120622636750340,  0.0204351693391800 ]
  - [   0.0395896285772324,  0.0110245142132044,  0.0164935626089573 ]
  - [   0.0429945215582848,  0.0119271622970700,  0.0201049819588661 ]
  - [   0.0427965112030506,  0.0120591428130865,  0.0201591178774834 ]
  - [   0.0423847511410713,  0.0119555769488215,  0.0202417373657227 ]
- atom:    1
  displacement:
    [   0.0024508229895996,  0.0006860630062505,  0.0096707178753754 ]
  forces:
  - [  -0.0150924120098352, -0.0042249658145010, -0.0208387076854706 ]
  - [  -0.0073339045047760, -0.0020878678187728,  0.0001953989267349 ]
  - [  -0.0073514282703400, -0.0020227869972587,  0.0001952387392521 ]
  - [  -0.0073076784610748, -0.0020453594624996,  0.0001596473157406 ]
  - [  -0.0072773061692715, -0.0020365919917822,  0.0001797527074814 ]
  - [  -0.0072979349642992, -0.0020340541377664,  0.0001801326870918 ]
  - [  -0.0072927027940750, -0.0020507965236902,  0.0001806542277336 ]
  - [  -0.0073321051895618, -0.0020527122542262,  0.0001424811780453 ]
  - [  -0.0163419470191002, -0.0045752008445561,  0.0061502568423748 ]
  - [  -0.0174498297274113, -0.0041173454374075,  0.0073846448212862 ]
  - [  -0.0170525591820478, -0.0055404538288713,  0.0073852678760886 ]
  - [  -0.0174423977732658, -0.0048820748925209,  0.0057020327076316 ]
  - [  -0.0165434051305056, -0.0046311682090163,  0.0062030330300331 ]
  - [  -0.0170739442110062, -0.0043614339083433,  0.0059928558766842 ]
  - [  -0.0168570242822170, -0.0051369243301451,  0.0059932246804237 ]
  - [  -0.0160163175314665, -0.0044828648678958,  0.0056422427296638 ]
  - [   0.0030894950032234,  0.0008651260286570, -0.0042465180158615 ]
  - [   0.0037854760885239,  0.0005917251110077, -0.0044984146952629 ]
  - [   0.0035421624779701,  0.0014600064605474, -0.0044983923435211 ]
  - [   0.0027602687478065,  0.0007717292755842, -0.0049585700035095 ]
  - [   0.0029849931597710,  0.0008357875049114, -0.0048308447003365 ]
  - [   0.0028588995337486,  0.0008964445441961, -0.0046599358320236 ]
  - [   0.0029073730111122,  0.0007176287472248, -0.0046597048640251 ]
  - [   0.0029410347342491,  0.0008233133703470, -0.0047181844711304 ]
  - [   0.0093927625566721,  0.0026288004592061,  0.0050681792199612 ]
  - [   0.0078986715525389, -0.0011801426298916,  0.0090881101787090 ]
  - [   0.0061362106353045,  0.0051084421575069,  0.0090897344052792 ]
  - [   0.0091311540454626,  0.0025562322698534,  0.0051196888089180 ]
  - [   0.0096960589289665,  0.0027150837704539,  0.0048840045928955 ]
  - [   0.0092139076441526,  0.0025421855971217,  0.0048585534095764 ]
  - [   0.0091937202960253,  0.0026106014847755,  0.0048577450215816 ]
  - [   0.0092403404414654,  0.0025855805724859,  0.0052734650671482 ]
  - [  -0.0311270765960217, -0.0087134549394250, -0.0270234607160091 ]
  - [  -0.0275284703820944, -0.0036238827742636, -0.0238781608641148 ]
  - [  -0.0254093408584595, -0.0111951371654868, -0.0238776747137308 ]
  - [  -0.0309104863554239, -0.0086532570421696, -0.0272180978208780 ]
  - [  -0.0309939365833998, -0.0086776083335280, -0.0270560290664434 ]
  - [  -0.0311107411980629, -0.0085166161879897, -0.0276397503912449 ]
  - [  -0.0310101415961981, -0.0088736200705171, -0.0276421122252941 ]
  - [  -0.0310262516140938, -0.0086843119934201, -0.0269996114075184 ]
  - [   0.0416791774332523,  0.0116666443645954,  0.0189820453524590 ]
  - [   0.0425529293715954,  0.0119522921741009,  0.0202803127467632 ]
  - [   0.0425753518939018,  0.0118779884651303,  0.0202796906232834 ]
  - [   0.0424969047307968,  0.0118964761495590,  0.0204291380941868 ]
  - [   0.0481752492487431,  0.0134864943102002,  0.0287600271403790 ]
  - [   0.0428433865308762,  0.0118155376985669,  0.0201490446925163 ]
  - [   0.0427492447197437,  0.0121455900371075,  0.0201498530805111 ]
  - [   0.0423345901072025,  0.0118509456515312,  0.0202878154814243 ]
- atom:    1
  displacement:
    [  -0.0024508229895996, -0.0006860630062505, -0.0096707178753754 ]
  forces:
  - [   0.0005695410072803,  0.0001596659421921,  0.0209695436060429 ]
  - [  -0.0072924196720123, -0.0020055947825313,  0.0002364106476307 ]
  - [  -0.0072731580585241, -0.0020715799182653,  0.0002363920211792 ]
  - [  -0.0073301754891872, -0.0020512463524938,  0.0002734288573265 ]
  - [  -0.0073528029024601, -0.0020577246323228,  0.0002504214644432 ]
  - [  -0.0073292497545481, -0.0020615300163627,  0.0002524256706238 ]
  - [  -0.0073335748165846, -0.0020435694605112,  0.0002529621124268 ]
  - [  -0.0072949547320604, -0.0020424062386155,  0.0002905763685703 ]
  - [  -0.0167209245264530, -0.0046812570653856,  0.0060907676815987 ]
  - [  -0.0155890332534909, -0.0051448470912874,  0.0048512648791075 ]
  - [  -0.0159958433359861, -0.0036965114995837,  0.0048516448587179 ]
  - [  -0.0156177990138531, -0.0043711792677641,  0.0065389825031161 ]
  - [  -0.0165207013487816, -0.0046249008737504,  0.0060440497472882 ]
  - [  -0.0159832723438740, -0.0048965909518301,  0.0062476918101311 ]
  - [  -0.0162029545754194, -0.0041132206097245,  0.0062478575855494 ]
  - [  -0.0170477740466595, -0.0047715124674141,  0.0066059958189726 ]
  - [   0.0028082355856895,  0.0007863137871027, -0.0051951035857201 ]
  - [   0.0020916610956192,  0.0010606106370687, -0.0049366280436516 ]
  - [   0.0023377984762192,  0.0001795701682568, -0.0049365758895874 ]
  - [   0.0031282827258110,  0.0008747167885303, -0.0044731721282005 ]
  - [   0.0028981342911720,  0.0008114632219076, -0.0046030208468437 ]
  - [   0.0030253678560257,  0.0007473099976778, -0.0047743916511536 ]
  - [   0.0029722005128860,  0.0009315703064203, -0.0047742798924446 ]
  - [   0.0029424130916595,  0.0008237790316343, -0.0047153607010841 ]
  - [   0.0094933360815048,  0.0026569701731205,  0.0054239854216576 ]
  - [   0.0109450276941061,  0.0063878474757075,  0.0014350190758705 ]
  - [   0.0126688126474619,  0.0002215392887592,  0.0014365613460541 ]
  - [   0.0097344480454922,  0.0027252328582108,  0.0053712651133537 ]
  - [   0.0091806240379810,  0.0025705145671964,  0.0056026503443718 ]
  - [   0.0096666626632214,  0.0027402034029365,  0.0056350901722908 ]
  - [   0.0096835717558861,  0.0026762895286083,  0.0056341104209423 ]
  - [   0.0096467528492212,  0.0026995097286999,  0.0052151866257191 ]
  - [  -0.0309457369148731, -0.0086624221876264, -0.0271833408623934 ]
  - [  -0.0346240587532520, -0.0138824861496687, -0.0303952768445015 ]
  - [  -0.0367991290986538, -0.0061111464165151, -0.0303954053670168 ]
  - [  -0.0311575029045343, -0.0087226238101721, -0.0269950740039349 ]
  - [  -0.0310745816677809, -0.0087000615894794, -0.0271556470543146 ]
  - [  -0.0309566482901573, -0.0088567510247231, -0.0265681110322475 ]
  - [  -0.0310547500848770, -0.0085028950124979, -0.0265704579651356 ]
  - [  -0.0310362968593836, -0.0086872847750783, -0.0272119957953691 ]
  - [   0.0433220081031322,  0.0121262772008777,  0.0215486399829388 ]
  - [   0.0424419827759266,  0.0118405846878886,  0.0202039927244186 ]
  - [   0.0424230024218559,  0.0119159901514649,  0.0202030166983604 ]
  - [   0.0424910783767700,  0.0118949171155691,  0.0200445875525475 ]
  - [   0.0370034798979759,  0.0103595927357674,  0.0120270028710365 ]
  - [   0.0421512722969055,  0.0119769191369414,  0.0203323848545551 ]
  - [   0.0422415025532246,  0.0116484705358744,  0.0203328169882298 ]
  - [   0.0426660850644112,  0.0119435219094157,  0.0201971419155598 ]
- atom:    9
  displacement:
    [   0.0100000000000000,  0.0000000000000000,  0.0000000000000000 ]
  forces:
  - [  -0.0069120600819588, -0.0019681341946125,  0.0003094710409641 ]
  - [  -0.0064072757959366, -0.0027236910536885, -0.0009212791919708 ]
  - [  -0.0070937871932983, -0.0014981226995587, -0.0004258602857590 ]
  - [  -0.0077578779309988, -0.0020718425512314, -0.0006130933761597 ]
  - [  -0.0071945060044527, -0.0021369690075517,  0.0001796446740627 ]
  - [  -0.0076092183589935, -0.0021033491939306, -0.0002695098519325 ]
  - [  -0.0074139516800642, -0.0021079741418362, -0.0000925101339817 ]
  - [  -0.0074863117188215, -0.0019073178991675,  0.0007834918797016 ]
  - [  -0.0297792330384254, -0.0047903764061630,  0.0031238989904523 ]
  - [  -0.0174958277493715, -0.0046447399072349,  0.0061131007969379 ]
  - [  -0.0172306168824434, -0.0050747161731124,  0.0060919225215912 ]
  - [  -0.0170160382986069, -0.0055816024541855,  0.0061008166521788 ]
  - [  -0.0165348816663027, -0.0046281181275845,  0.0061179883778095 ]
  - [  -0.0165405590087175, -0.0046300617977977,  0.0061173103749752 ]
  - [  -0.0165405385196209, -0.0046303276903927,  0.0061147995293140 ]
  - [  -0.0165227409452200, -0.0046251248568296,  0.0061477152630687 ]
  - [   0.0033463165163994,  0.0010358430445194, -0.0032228380441666 ]
  - [   0.0029553100466728,  0.0008437763899565, -0.0045890584588051 ]
  - [   0.0029995441436768,  0.0008215196430683, -0.0046237185597420 ]
  - [   0.0029339492321014,  0.0009341984987259, -0.0045494437217712 ]
  - [   0.0030027404427528,  0.0008472893387079, -0.0050272196531296 ]
  - [   0.0029019042849541,  0.0008308999240398, -0.0047086179256439 ]
  - [   0.0029503926634789,  0.0008071810007095, -0.0047107934951782 ]
  - [   0.0031278058886528,  0.0007649306207895, -0.0045801103115082 ]
  - [   0.0094043929129839,  0.0026132212951779,  0.0051346831023693 ]
  - [   0.0093990229070187,  0.0027012592181563,  0.0054165832698345 ]
  - [   0.0094072166830301,  0.0025454498827457,  0.0053551569581032 ]
  - [   0.0092476978898048,  0.0026524136774242,  0.0054342076182365 ]
  - [   0.0092982370406389,  0.0025519710034132,  0.0051227398216724 ]
  - [   0.0115250889211893,  0.0010208161547780,  0.0015858560800552 ]
  - [   0.0096646510064602,  0.0040637850761414,  0.0033437199890614 ]
  - [   0.0089385397732258,  0.0025445106439292,  0.0048714205622673 ]
  - [  -0.0306648705154657, -0.0085686873644590, -0.0272769033908844 ]
  - [  -0.0268160775303841, -0.0098667908459902, -0.0252941455692053 ]
  - [  -0.0288930907845497, -0.0061715566553175, -0.0260191299021244 ]
  - [  -0.0301052927970886, -0.0087163038551807, -0.0277864113450050 ]
  - [  -0.0310298353433609, -0.0086758648976684, -0.0270364917814732 ]
  - [  -0.0310709550976753, -0.0086903534829617, -0.0271999314427376 ]
  - [  -0.0310481432825327, -0.0086994562298059, -0.0271599702537060 ]
  - [  -0.0310010090470314, -0.0086891595274210, -0.0271101836115122 ]
  - [   0.0427796728909016,  0.0119829196482897,  0.0200029015541077 ]
  - [   0.0463752895593643,  0.0101157929748297,  0.0249912329018116 ]
  - [   0.0438523553311825,  0.0140813011676073,  0.0232807919383049 ]
  - [   0.0420120693743229,  0.0118484850972891,  0.0205204673111439 ]
  - [   0.0425059832632542,  0.0118911499157548,  0.0202048756182194 ]
  - [   0.0425198413431644,  0.0118918791413307,  0.0202013403177261 ]
  - [   0.0425111539661884,  0.0119031313806772,  0.0202337913215160 ]
  - [   0.0425055399537086,  0.0119068920612335,  0.0203172415494919 ]
- atom:    9
  displacement:
    [  -0.0100000000000000,  0.0000000000000000,  0.0000000000000000 ]
  forces:
  - [  -0.0077117457985878, -0.0021250033751130,  0.0001314692199230 ]
  - [  -0.0082219764590263, -0.0013590026646852,  0.0013655945658684 ]
  - [  -0.0075211171060801, -0.0025956896133721,  0.0008526481688023 ]
  - [  -0.0068666208535433, -0.0020215529948473,  0.0010441839694977 ]
  - [  -0.0074341706931591, -0.0019570142030716,  0.0002505779266357 ]
  - [  -0.0070196930319071, -0.0019912645220757,  0.0007011964917183 ]
  - [  -0.0072140414267778, -0.0019875569269061,  0.0005250088870525 ]
  - [  -0.0071376878768206, -0.0021874345839024, -0.0003516450524330 ]
  - [  -0.0033357962965965, -0.0045021963305771,  0.0092300949618220 ]
  - [  -0.0155568243935704, -0.0046147713437676,  0.0061332788318396 ]
  - [  -0.0158227123320103, -0.0041701840236783,  0.0061535947024822 ]
  - [  -0.0160522311925888, -0.0036760608199984,  0.0061353165656328 ]
  - [  -0.0165282078087330, -0.0046274485066533,  0.0061252629384398 ]
  - [  -0.0165219362825155, -0.0046260710805655,  0.0061249658465385 ]
  - [  -0.0165230669081211, -0.0046240780502558,  0.0061275307089090 ]
  - [  -0.0165399145334959, -0.0046286573633552,  0.0060966378077865 ]
  - [   0.0025289356708527,  0.0006109066307545, -0.0062270015478134 ]
  - [   0.0029242038726807,  0.0008033011108637, -0.0048498809337616 ]
  - [   0.0028801187872887,  0.0008242595940828, -0.0048150718212128 ]
  - [   0.0029566958546638,  0.0007111951708794, -0.0048857033252716 ]
  - [   0.0028800964355469,  0.0007997322827578, -0.0044024065136909 ]
  - [   0.0029829367995262,  0.0008134450763464, -0.0047240108251572 ]
  - [   0.0029304400086403,  0.0008418019860983, -0.0047220289707184 ]
  - [   0.0027544051408768,  0.0008836071938276, -0.0048494488000870 ]
  - [   0.0094815753400326,  0.0026730000972748,  0.0053566247224808 ]
  - [   0.0094831585884094,  0.0025860201567411,  0.0050680413842201 ]
  - [   0.0094713382422924,  0.0027366466820240,  0.0051320455968380 ]
  - [   0.0096346270292997,  0.0026323497295380,  0.0050593577325344 ]
  - [   0.0095701590180397,  0.0027308687567711,  0.0053659267723560 ]
  - [   0.0073780566453934,  0.0042273597791791,  0.0088365934789181 ]
  - [   0.0091957487165928,  0.0012188898399472,  0.0071462467312813 ]
  - [   0.0099614001810551,  0.0027389214374125,  0.0056199282407761 ]
  - [  -0.0314309746026993, -0.0088126091286540, -0.0269421264529228 ]
  - [  -0.0350863113999367, -0.0075671724043787, -0.0288631170988083 ]
  - [  -0.0331356748938560, -0.0111308284103870, -0.0281665325164795 ]