phonopy:
  version: "2.37.1"
  frequency_unit_conversion_factor: 15.633302
  symmetry_tolerance: 1.00000e-05

space_group:
  type: "I4_1/amd"
  number: 141
  Hall_symbol: "I 4bw 2bw -1bw"

primitive_matrix:
- [  0.000000000000000,  1.000000000000000, -0.000000000000000 ]
- [  0.000000000000000,  1.000000000000000, -1.000000000000000 ]
- [ -1.000000000000000,  1.000000000000000,  0.000000000000000 ]

supercell_matrix:
- [   3,   0,   0 ]
- [   0,   3,   0 ]
- [   0,   0,   3 ]

primitive_cell:
  lattice:
  - [     0.557286292858228,     1.487046685104700,    -4.237474231023823 ] # a
  - [     0.557286870862787,     1.487045157003138,     4.237474231023823 ] # b
  - [     3.410695540693709,    -2.974091842107838,     0.000000000000000 ] # c
  points:
  - symbol: Sn # 1
    coordinates: [  0.749999986623081,  0.249999962582460,  0.499999985673172 ]
    mass: 118.710000
  - symbol: Sn # 2
    coordinates: [  0.000000013457305,  0.000000037413586,  0.000000014407515 ]
    mass: 118.710000
  reciprocal_lattice: # without 2pi
  - [     0.220981352781201,     0.253421936685430,    -0.117994787219291 ] # a*
  - [     0.220981352781201,     0.253421936685430,     0.117994848464791 ] # b*
  - [     0.220981352781201,    -0.082815157893084,    -0.000000030003510 ] # c*

unit_cell:
  lattice:
  - [     4.525268704414724,     0.000000000000000,     0.000000000000000 ] # a
  - [    -3.410695540693709,     2.974091842107838,     0.000000000000000 ] # b
  - [    -0.557286292858228,    -1.487046685104700,     4.237474231023823 ] # c
  points:
  - symbol: Sn # 1
    coordinates: [  0.249999962582460,  0.749999976909288,  0.499999975959379 ]
    mass: 118.710000
    reduced_to: 1
  - symbol: Sn # 2
    coordinates: [  0.000000037413586,  0.000000023006071,  0.000000023956281 ]
    mass: 118.710000
    reduced_to: 2

supercell:
  lattice:
  - [    13.575806113244173,     0.000000000000000,     0.000000000000000 ] # a
  - [   -10.232086622081129,     8.922275526323514,     0.000000000000000 ] # b
  - [    -1.671858878574683,    -4.461140055314099,    12.712422693071469 ] # c
  points:
  - symbol: Sn # 1
    coordinates: [  0.083333320860820,  0.249999992303096,  0.166666658653126 ]
    mass: 118.710000
    reduced_to: 1
  - symbol: Sn # 2
    coordinates: [  0.416666654194153,  0.249999992303096,  0.166666658653126 ]
    mass: 118.710000
    reduced_to: 1
  - symbol: Sn # 3
    coordinates: [  0.749999987527487,  0.249999992303096,  0.166666658653126 ]
    mass: 118.710000
    reduced_to: 1
  - symbol: Sn # 4
    coordinates: [  0.083333320860820,  0.583333325636429,  0.166666658653126 ]
    mass: 118.710000
    reduced_to: 1
  - symbol: Sn # 5
    coordinates: [  0.416666654194153,  0.583333325636429,  0.166666658653126 ]
    mass: 118.710000
    reduced_to: 1
  - symbol: Sn # 6
    coordinates: [  0.749999987527487,  0.583333325636429,  0.166666658653126 ]
    mass: 118.710000
    reduced_to: 1
  - symbol: Sn # 7
    coordinates: [  0.083333320860820,  0.916666658969763,  0.166666658653126 ]
    mass: 118.710000
    reduced_to: 1
  - symbol: Sn # 8
    coordinates: [  0.416666654194153,  0.916666658969763,  0.166666658653126 ]
    mass: 118.710000
    reduced_to: 1
  - symbol: Sn # 9
    coordinates: [  0.749999987527487,  0.916666658969763,  0.166666658653126 ]
    mass: 118.710000
    reduced_to: 1
  - symbol: Sn # 10
    coordinates: [  0.083333320860820,  0.249999992303096,  0.499999991986460 ]
    mass: 118.710000
    reduced_to: 1
  - symbol: Sn # 11
    coordinates: [  0.416666654194153,  0.249999992303096,  0.499999991986460 ]
    mass: 118.710000
    reduced_to: 1
  - symbol: Sn # 12
    coordinates: [  0.749999987527487,  0.249999992303096,  0.499999991986460 ]
    mass: 118.710000
    reduced_to: 1
  - symbol: Sn # 13
    coordinates: [  0.083333320860820,  0.583333325636429,  0.499999991986460 ]
    mass: 118.710000
    reduced_to: 1
  - symbol: Sn # 14
    coordinates: [  0.416666654194153,  0.583333325636429,  0.499999991986460 ]
    mass: 118.710000
    reduced_to: 1
  - symbol: Sn # 15
    coordinates: [  0.749999987527487,  0.583333325636429,  0.499999991986460 ]
    mass: 118.710000
    reduced_to: 1
  - symbol: Sn # 16
    coordinates: [  0.083333320860820,  0.916666658969763,  0.499999991986460 ]
    mass: 118.710000
    reduced_to: 1
  - symbol: Sn # 17
    coordinates: [  0.416666654194153,  0.916666658969763,  0.499999991986460 ]
    mass: 118.710000
    reduced_to: 1
  - symbol: Sn # 18
    coordinates: [  0.749999987527487,  0.916666658969763,  0.499999991986460 ]
    mass: 118.710000
    reduced_to: 1
  - symbol: Sn # 19
    coordinates: [  0.083333320860820,  0.249999992303096,  0.833333325319793 ]
    mass: 118.710000
    reduced_to: 1
  - symbol: Sn # 20
    coordinates: [  0.416666654194153,  0.249999992303096,  0.833333325319793 ]
    mass: 118.710000
    reduced_to: 1
  - symbol: Sn # 21
    coordinates: [  0.749999987527487,  0.249999992303096,  0.833333325319793 ]
    mass: 118.710000
    reduced_to: 1
  - symbol: Sn # 22
    coordinates: [  0.083333320860820,  0.583333325636429,  0.833333325319793 ]
    mass: 118.710000
    reduced_to: 1
  - symbol: Sn # 23
    coordinates: [  0.416666654194153,  0.583333325636429,  0.833333325319793 ]
    mass: 118.710000
    reduced_to: 1
  - symbol: Sn # 24
    coordinates: [  0.749999987527487,  0.583333325636429,  0.833333325319793 ]
    mass: 118.710000
    reduced_to: 1
  - symbol: Sn # 25
    coordinates: [  0.083333320860820,  0.916666658969763,  0.833333325319793 ]
    mass: 118.710000
    reduced_to: 1
  - symbol: Sn # 26
    coordinates: [  0.416666654194153,  0.916666658969763,  0.833333325319793 ]
    mass: 118.710000
    reduced_to: 1
  - symbol: Sn # 27
    coordinates: [  0.749999987527487,  0.916666658969763,  0.833333325319793 ]
    mass: 118.710000
    reduced_to: 1
  - symbol: Sn # 28
    coordinates: [  0.000000012471195,  0.000000007668690,  0.000000007985427 ]
    mass: 118.710000
    reduced_to: 28
  - symbol: Sn # 29
    coordinates: [  0.333333345804529,  0.000000007668690,  0.000000007985427 ]
    mass: 118.710000
    reduced_to: 28
  - symbol: Sn # 30
    coordinates: [  0.666666679137862,  0.000000007668690,  0.000000007985427 ]
    mass: 118.710000
    reduced_to: 28
  - symbol: Sn # 31
    coordinates: [  0.000000012471195,  0.333333341002024,  0.000000007985427 ]
    mass: 118.710000
    reduced_to: 28
  - symbol: Sn # 32
    coordinates: [  0.333333345804529,  0.333333341002024,  0.000000007985427 ]
    mass: 118.710000
    reduced_to: 28
  - symbol: Sn # 33
    coordinates: [  0.666666679137862,  0.333333341002024,  0.000000007985427 ]
    mass: 118.710000
    reduced_to: 28
  - symbol: Sn # 34
    coordinates: [  0.000000012471195,  0.666666674335357,  0.000000007985427 ]
    mass: 118.710000
    reduced_to: 28
  - symbol: Sn # 35
    coordinates: [  0.333333345804529,  0.666666674335357,  0.000000007985427 ]
    mass: 118.710000
    reduced_to: 28
  - symbol: Sn # 36
    coordinates: [  0.666666679137862,  0.666666674335357,  0.000000007985427 ]
    mass: 118.710000
    reduced_to: 28
  - symbol: Sn # 37
    coordinates: [  0.000000012471195,  0.000000007668690,  0.333333341318760 ]
    mass: 118.710000
    reduced_to: 28
  - symbol: Sn # 38
    coordinates: [  0.333333345804529,  0.000000007668690,  0.333333341318760 ]
    mass: 118.710000
    reduced_to: 28
  - symbol: Sn # 39
    coordinates: [  0.666666679137862,  0.000000007668690,  0.333333341318760 ]
    mass: 118.710000
    reduced_to: 28
  - symbol: Sn # 40
    coordinates: [  0.000000012471195,  0.333333341002024,  0.333333341318760 ]
    mass: 118.710000
    reduced_to: 28
  - symbol: Sn # 41
    coordinates: [  0.333333345804529,  0.333333341002024,  0.333333341318760 ]
    mass: 118.710000
    reduced_to: 28
  - symbol: Sn # 42
    coordinates: [  0.666666679137862,  0.333333341002024,  0.333333341318760 ]
    mass: 118.710000
    reduced_to: 28
  - symbol: Sn # 43
    coordinates: [  0.000000012471195,  0.666666674335357,  0.333333341318760 ]
    mass: 118.710000
    reduced_to: 28
  - symbol: Sn # 44
    coordinates: [  0.333333345804529,  0.666666674335357,  0.333333341318760 ]
    mass: 118.710000
    reduced_to: 28
  - symbol: Sn # 45
    coordinates: [  0.666666679137862,  0.666666674335357,  0.333333341318760 ]
    mass: 118.710000
    reduced_to: 28
  - symbol: Sn # 46
    coordinates: [  0.000000012471195,  0.000000007668690,  0.666666674652094 ]
    mass: 118.710000
    reduced_to: 28
  - symbol: Sn # 47
    coordinates: [  0.333333345804529,  0.000000007668690,  0.666666674652094 ]
    mass: 118.710000
    reduced_to: 28
  - symbol: Sn # 48
    coordinates: [  0.666666679137862,  0.000000007668690,  0.666666674652094 ]
    mass: 118.710000
    reduced_to: 28
  - symbol: Sn # 49
    coordinates: [  0.000000012471195,  0.333333341002024,  0.666666674652094 ]
    mass: 118.710000
    reduced_to: 28
  - symbol: Sn # 50
    coordinates: [  0.333333345804529,  0.333333341002024,  0.666666674652094 ]
    mass: 118.710000
    reduced_to: 28
  - symbol: Sn # 51
    coordinates: [  0.666666679137862,  0.333333341002024,  0.666666674652094 ]
    mass: 118.710000
    reduced_to: 28
  - symbol: Sn # 52
    coordinates: [  0.000000012471195,  0.666666674335357,  0.666666674652094 ]
    mass: 118.710000
    reduced_to: 28
  - symbol: Sn # 53
    coordinates: [  0.333333345804529,  0.666666674335357,  0.666666674652094 ]
    mass: 118.710000
    reduced_to: 28
  - symbol: Sn # 54
    coordinates: [  0.666666679137862,  0.666666674335357,  0.666666674652094 ]
    mass: 118.710000
    reduced_to: 28

displacements:
- atom:    1
  displacement:
    [   0.0100000000000000,  0.0000000000000000,  0.0000000000000000 ]
  forces:
  - [  -0.0257070716470480,  0.0055006495676935,  0.0000667512649670 ]
  - [   0.0033187558874488,  0.0000241333618760, -0.0005573993548751 ]
  - [   0.0029644030146301,  0.0000079092569649,  0.0005353404558264 ]
  - [   0.0015671926084906, -0.0016322755254805, -0.0001987092546187 ]
  - [   0.0006949275266379,  0.0030165333300829, -0.0000017479760572 ]
  - [  -0.0000497350702062,  0.0000199006171897,  0.0001411149278283 ]
  - [   0.0017196445260197, -0.0017808014526963,  0.0002042404958047 ]
  - [  -0.0000513335689902,  0.0000222818925977, -0.0001455526798964 ]
  - [   0.0006764822173864,  0.0029459898360074, -0.0000042952597141 ]
  - [  -0.0007983250543475,  0.0008379213977605, -0.0007728951750323 ]
  - [  -0.0006803126307204,  0.0003219314385206, -0.0007316897390410 ]
  - [   0.0002795533509925,  0.0003519651945680, -0.0002456701477058 ]
  - [  -0.0006654607132077,  0.0003184517845511,  0.0007058079354465 ]
  - [  -0.0008004112169147,  0.0008511962369084,  0.0007773665711284 ]
  - [   0.0002812072634697,  0.0003485558554530,  0.0002468181774020 ]
  - [  -0.0000619048951194, -0.0000426337355748,  0.0000611848081462 ]
  - [  -0.0000643043313175, -0.0000436855480075, -0.0000613294541836 ]
  - [   0.0001736793201417, -0.0004769717343152,  0.0000028526410460 ]
  - [  -0.0007940768264234, -0.0001397390151396, -0.0000230111763813 ]
  - [   0.0002754696179181,  0.0001245907042176, -0.0003220413345844 ]
  - [  -0.0006683965912089,  0.0002553415251896, -0.0006843494484201 ]
  - [  -0.0000641597434878, -0.0002666013315320,  0.0001427369425073 ]
  - [   0.0001731425290927,  0.0003519594902173,  0.0000036720302887 ]
  - [  -0.0000615390017629, -0.0002604264300317, -0.0001383097260259 ]
  - [  -0.0006772165652364,  0.0002671522088349,  0.0007080567302182 ]
  - [   0.0002853074111044,  0.0001309807412326,  0.0003278194926679 ]
  - [  -0.0008068323368207, -0.0001473957672715,  0.0000314675853588 ]
  - [   0.0037993181031197, -0.0039370842278004, -0.0055689574219286 ]
  - [   0.0000816747779027, -0.0001078955829144, -0.0000189347192645 ]
  - [   0.0008712995331734,  0.0004142409889027,  0.0003376695676707 ]
  - [   0.0038001376669854, -0.0038433473091573,  0.0054649370722473 ]
  - [   0.0008422294631600,  0.0004131812602282, -0.0003022715682164 ]
  - [   0.0000856721308082, -0.0001080422662199,  0.0000248169526458 ]
  - [  -0.0001332475803792,  0.0001413989812136,  0.0000009648501873 ]
  - [   0.0002526317257434,  0.0008415915071964, -0.0001577446237206 ]
  - [   0.0002466129371896,  0.0008308914257213,  0.0001587271690369 ]
  - [  -0.0001473969314247, -0.0007191705517471, -0.0002178633585572 ]
  - [   0.0002094106748700,  0.0000430992804468, -0.0000039665028453 ]
  - [  -0.0013377685099840, -0.0010264511220157,  0.0009869867935777 ]
  - [   0.0063210818916559, -0.0009145331569016, -0.0067922817543149 ]
  - [   0.0064838421531022, -0.0008959895931184,  0.0070211607962847 ]
  - [  -0.0002994856331497, -0.0000456878915429, -0.0000070808455348 ]
  - [   0.0002158491406590,  0.0000392574584112,  0.0000071842805482 ]
  - [  -0.0001253348309547, -0.0007332869572565,  0.0001976552302949 ]
  - [  -0.0016310878563672, -0.0012838634429500, -0.0011835852637887 ]
  - [  -0.0000759551767260,  0.0000897999852896,  0.0000234466497204 ]
  - [  -0.0000596139580011, -0.0000233631581068, -0.0000048740766943 ]
  - [  -0.0000782627612352,  0.0000911150127649, -0.0000292811018880 ]
  - [  -0.0002149497158825,  0.0000493415864184,  0.0000441731353931 ]
  - [  -0.0001278042327613,  0.0000355003867298,  0.0000417857518187 ]
  - [   0.0004514235770330, -0.0001678289845586,  0.0005538378027268 ]
  - [   0.0004555442137644, -0.0001655920641497, -0.0005544729647227 ]
  - [  -0.0001295041292906,  0.0000317480880767, -0.0000440591211373 ]
  - [  -0.0002149995416403,  0.0000440764706582, -0.0000462058414996 ]

force_constants:
  format: "full"
  shape: [ 54, 54 ]
  elements:
  - # (1, 1)
    - [     2.570707178255571,    -0.550064616837821,    -0.000000046732719 ]
    - [    -0.550064616837821,     1.309075660281575,    -0.000000108227199 ]
    - [    -0.000000046732719,    -0.000000108227199,     2.776849964351394 ]
  - # (1, 2)
    - [    -0.314240682818410,    -0.001457853145556,     0.054698974427763 ]
    - [    -0.001457873938569,     0.029694888184509,     0.032163992414414 ]
    - [    -0.054698935657665,    -0.032163975896784,     0.093126340142782 ]
  - # (1, 3)
    - [    -0.314240665032601,    -0.001457845258780,    -0.054698948013983 ]
    - [    -0.001457841506862,     0.029694900263676,    -0.032163958950841 ]
    - [     0.054698985312493,     0.032163966985478,     0.093126330133140 ]
  - # (1, 4)
    - [    -0.164238173676772,     0.170565462693666,     0.020087871446922 ]
    - [     0.170565382584885,    -0.120307517110906,    -0.060191145439540 ]
    - [    -0.020087812641596,     0.060191114007542,     0.093126324708402 ]
  - # (1, 5)
    - [    -0.068570504964435,    -0.298126042769197,    -0.000000023265240 ]
    - [    -0.298125940889665,    -0.752353937739916,    -0.000000055186076 ]
    - [    -0.000000104600564,    -0.000000265486775,     0.043155513742228 ]
  - # (1, 6)
    - [     0.005048036468675,    -0.002123498898796,    -0.014496406006845 ]
    - [    -0.002123490467757,     0.000177568259252,    -0.038681704588909 ]
    - [     0.014496404135415,     0.038681731298810,    -0.019683583750727 ]
  - # (1, 7)
    - [    -0.164238173573583,     0.170565444210445,    -0.020087817013250 ]
    - [     0.170565396475431,    -0.120307548008135,     0.060191135114623 ]
    - [     0.020087894338715,    -0.060191192015774,     0.093126343393546 ]
  - # (1, 8)
    - [     0.005048042106322,    -0.002123498807052,     0.014496405366631 ]
    - [    -0.002123483642995,     0.000177575948638,     0.038681738799032 ]
    - [    -0.014496408369781,    -0.038681712588118,    -0.019683589890498 ]
  - # (1, 9)
    - [    -0.068570544797848,    -0.298126143743921,    -0.000000025335933 ]
    - [    -0.298125922763328,    -0.752353897399233,    -0.000000056023084 ]
    - [     0.000000005748604,     0.000000030798242,     0.043155517396669 ]
  - # (1, 10)
    - [     0.079980689066118,    -0.084391267240328,     0.077440944545560 ]
    - [     0.014236353857151,    -0.000473228908936,     0.092847919846958 ]
    - [     0.002654117130462,     0.120875134015261,    -0.270926860387381 ]
  - # (1, 11)
    - [     0.067284674570846,    -0.032087299996077,     0.071805780883267 ]
    - [    -0.026056428120818,     0.000605244176588,    -0.023689781580310 ]
    - [     0.069689384919286,    -0.029337091257974,     0.078179656853687 ]
  - # (1, 12)
    - [    -0.028058607075343,    -0.035115139831710,     0.024599610836313 ]
    - [    -0.012876477527672,    -0.003508571035976,     0.006835762292794 ]
    - [     0.032403759682444,     0.027660104761150,    -0.009264785704846 ]
  - # (1, 13)
    - [     0.067284676078542,    -0.032087305687575,    -0.071805802502754 ]
    - [    -0.026056412521352,     0.000605234138626,     0.023689765879681 ]
    - [    -0.069689409519120,     0.029337091861857,     0.078179692239469 ]
  - # (1, 14)
    - [     0.079980673861941,    -0.084391236415854,    -0.077440961759898 ]
    - [     0.014236336688372,    -0.000473198499461,    -0.092847899768466 ]
    - [    -0.002654145039175,    -0.120875081369779,    -0.270926912198294 ]
  - # (1, 15)
    - [    -0.028058614634756,    -0.035115141797325,    -0.024599616257744 ]
    - [    -0.012876479099092,    -0.003508561354952,    -0.006835755073799 ]
    - [    -0.032403766610767,    -0.027660096231186,    -0.009264782353180 ]
  - # (1, 16)
    - [     0.006317894278791,     0.004307927386159,    -0.006243984409514 ]
    - [     0.026546581495174,    -0.037885067163622,     0.042143756716034 ]
    - [    -0.014048140425684,     0.021319428483747,    -0.009264778020824 ]
  - # (1, 17)
    - [     0.006317897057280,     0.004307921542440,     0.006243981287714 ]
    - [     0.026546589090946,    -0.037885052076176,    -0.042143759640159 ]
    - [     0.014048138552611,    -0.021319439476802,    -0.009264792003611 ]
  - # (1, 18)
    - [    -0.017335699726636,     0.047573914870914,     0.000000004295238 ]
    - [    -0.035043790549527,    -0.002966110995297,     0.000000004980197 ]
    - [    -0.000000012568651,     0.000000000827747,     0.005843841081082 ]
  - # (1, 19)
    - [     0.079980666342103,     0.014236332078579,     0.002654133734144 ]
    - [    -0.084391194144303,    -0.000473211322923,     0.120875075244837 ]
    - [     0.077440906295575,     0.092847959227777,    -0.270926859543565 ]
  - # (1, 20)
    - [    -0.028058637334693,    -0.012876508940806,     0.032403776686845 ]
    - [    -0.035115135759757,    -0.003508573245751,     0.027660109957831 ]
    - [     0.024599612004747,     0.006835773289780,    -0.009264789203241 ]
  - # (1, 21)
    - [     0.067284681868484,    -0.026056436727450,     0.069689390809580 ]
    - [    -0.032087277218622,     0.000605237454843,    -0.029337082819714 ]
    - [     0.071805772529086,    -0.023689792029168,     0.078179651706354 ]
  - # (1, 22)
    - [     0.006317890809744,     0.026546593983203,    -0.014048136470030 ]
    - [     0.004307941255671,    -0.037885058242942,     0.021319425202300 ]
    - [    -0.006243995569231,     0.042143752100838,    -0.009264773694310 ]
  - # (1, 23)
    - [    -0.017335680098108,    -0.035043810961263,    -0.000000000220859 ]
    - [     0.047573903323343,    -0.002966133539135,     0.000000002534615 ]
    - [     0.000000009239926,     0.000000014591218,     0.005843840367343 ]
  - # (1, 24)
    - [     0.006317899634676,     0.026546572642149,     0.014048133170410 ]
    - [     0.004307948337379,    -0.037885046517852,    -0.021319428506753 ]
    - [     0.006243981967118,    -0.042143777415114,    -0.009264786800535 ]
  - # (1, 25)
    - [     0.067284665775614,    -0.026056451254388,    -0.069689404780058 ]
    - [    -0.032087264202611,     0.000605234000431,     0.029337073860393 ]
    - [    -0.071805798017448,     0.023689782472883,     0.078179680243303 ]
  - # (1, 26)
    - [    -0.028058640429961,    -0.012876501598542,    -0.032403768707274 ]
    - [    -0.035115141195493,    -0.003508561804596,    -0.027660093176569 ]
    - [    -0.024599611106665,    -0.006835757171541,    -0.009264786067018 ]
  - # (1, 27)
    - [     0.079980681044522,     0.014236335528775,    -0.002654143564906 ]
    - [    -0.084391228683882,    -0.000473194066905,    -0.120875084043602 ]
    - [    -0.077440965154732,    -0.092847906501948,    -0.270926907065154 ]
  - # (1, 28)
    - [    -0.379971098668607,     0.389016697179694,     0.551694946485235 ]
    - [     0.389016686394249,    -0.090301197306692,    -0.418215883422999 ]
    - [     0.551695033672216,    -0.418215904230363,    -0.599967518142033 ]
  - # (1, 29)
    - [    -0.008369259463691,     0.010697771235282,     0.002186729128877 ]
    - [     0.010697775451782,    -0.013782681676248,     0.003335146961945 ]
    - [     0.002186725379830,     0.003335150542758,     0.012613202675975 ]
  - # (1, 30)
    - [    -0.085624871311529,    -0.041261151525293,    -0.032097538717480 ]
    - [    -0.041261156801825,     0.049424651125200,    -0.068574274718847 ]
    - [    -0.032097511193501,    -0.068574273318091,    -0.041875918357550 ]
  - # (1, 31)
    - [    -0.379971246888630,     0.389016890933135,    -0.551694982619396 ]
    - [     0.389016558983597,    -0.090301150127053,     0.418215655770747 ]
    - [    -0.551694907477768,     0.418215982588020,    -0.599967215319970 ]
  - # (1, 32)
    - [    -0.085624825055495,    -0.041261145865163,     0.032097517319165 ]
    - [    -0.041261134231814,     0.049424659070938,     0.068574300874237 ]
    - [     0.032097514125732,     0.068574318785971,    -0.041875885265271 ]
  - # (1, 33)
    - [    -0.008369272049655,     0.010697761416890,    -0.002186730695584 ]
    - [     0.010697764837697,    -0.013782678872048,    -0.003335143611655 ]
    - [    -0.002186726842472,    -0.003335138888025,     0.012613194800130 ]
  - # (1, 34)
    - [     0.013326436111878,    -0.014300087428357,    -0.000000003530977 ]
    - [    -0.014300079395382,     0.019054164429281,    -0.000000000390641 ]
    - [    -0.000000006519250,     0.000000008690461,     0.023247926159919 ]
  - # (1, 35)
    - [    -0.025011787004370,    -0.083541689998311,     0.015854065085111 ]
    - [    -0.083541686546390,     0.185065725626550,    -0.146905169790983 ]
    - [     0.015854083029958,    -0.146905197803161,     0.055764376918501 ]
  - # (1, 36)
    - [    -0.025011797454027,    -0.083541689423326,    -0.015854077078233 ]
    - [    -0.083541686056313,     0.185065702949389,     0.146905219188136 ]
    - [    -0.015854113256260,     0.146905264649134,     0.055764460387691 ]
  - # (1, 37)
    - [     0.013585004751490,     0.072512982212440,     0.020876402985168 ]
    - [     0.072512972381121,    -0.049785140801267,     0.072779511428867 ]
    - [     0.020876408301482,     0.072779528278416,    -0.041875880150940 ]
  - # (1, 38)
    - [    -0.021305691264607,    -0.004137757976109,     0.000543783447873 ]
    - [    -0.004137758476186,    -0.000846256261993,     0.003950862073932 ]
    - [     0.000543779097936,     0.003950856579770,     0.012613202572918 ]
  - # (1, 39)
    - [     0.148492424922531,     0.115433386073615,    -0.108498113371606 ]
    - [     0.115433377376452,     0.011561699998628,    -0.100302887222027 ]
    - [    -0.108498097532654,    -0.100302894561808,     0.055764439679451 ]
  - # (1, 40)
    - [    -0.640247937504606,     0.090530769658963,     0.690672018377858 ]
    - [     0.090530551326492,     0.169975330867409,    -0.047374479129223 ]
    - [     0.690671908970899,    -0.047374665303984,    -0.599967514086768 ]
  - # (1, 41)
    - [    -0.640247844134146,     0.090530856042315,    -0.690671823211350 ]
    - [     0.090530865930394,     0.169975315282018,     0.047374795621925 ]
    - [    -0.690671781818509,     0.047374777025801,    -0.599967279054021 ]
  - # (1, 42)
    - [     0.029967433841946,     0.004783849572955,    -0.000000000612536 ]
    - [     0.004783862086995,     0.002413178563736,     0.000000000749143 ]
    - [    -0.000000002531087,    -0.000000004752379,     0.023247922968196 ]
  - # (1, 43)
    - [    -0.021305706008927,    -0.004137768629482,    -0.000543777349871 ]
    - [    -0.004137764963154,    -0.000846257340544,    -0.003950851029619 ]
    - [    -0.000543774615064,    -0.003950853303277,     0.012613192062777 ]
  - # (1, 44)
    - [     0.013585006588405,     0.072512965222074,    -0.020876413723472 ]
    - [     0.072512967109811,    -0.049785144406026,    -0.072779547896778 ]
    - [    -0.020876374014945,    -0.072779552096210,    -0.041875935708582 ]
  - # (1, 45)
    - [     0.148492393626504,     0.115433355161963,     0.108498093517745 ]
    - [     0.115433343419636,     0.011561634675426,     0.100302873384932 ]
    - [     0.108498061717423,     0.100302872191794,     0.055764425593106 ]
  - # (1, 46)
    - [     0.007753629598526,    -0.009076691535215,    -0.002632288355599 ]
    - [    -0.009076689077363,    -0.001225682950188,    -0.009523745938448 ]
    - [    -0.002632288305464,    -0.009523743171397,    -0.016066705721795 ]
  - # (1, 47)
    - [     0.005961408199843,     0.002336359391898,     0.000000003948617 ]
    - [     0.002336354532457,     0.011320065858647,     0.000000006185296 ]
    - [    -0.000000001876496,     0.000000006219769,     0.005085828182313 ]
  - # (1, 48)
    - [     0.007753636312005,    -0.009076690429461,     0.002632275093923 ]
    - [    -0.009076684892764,    -0.001225682601173,     0.009523750944785 ]
    - [     0.002632273264122,     0.009523752313961,    -0.016066699333335 ]
  - # (1, 49)
    - [     0.021487199552826,    -0.004698262051810,    -0.004442804531590 ]
    - [    -0.004698251534344,     0.010711241588263,    -0.011855012523050 ]
    - [    -0.004442806992419,    -0.011855013118033,     0.023430085811504 ]
  - # (1, 50)
    - [     0.012867352117370,    -0.003212262397095,    -0.004275229669642 ]
    - [    -0.003212261217530,    -0.006339402457958,    -0.008908034419542 ]
    - [    -0.004275234571049,    -0.008908035583299,    -0.016066702707272 ]
  - # (1, 51)
    - [    -0.045348386682389,     0.016671085567507,    -0.055415534948916 ]
    - [     0.016671075713876,    -0.007111498061460,     0.020767558574299 ]
    - [    -0.055415529956343,     0.020767577820117,    -0.051596041428588 ]
  - # (1, 52)
    - [    -0.045348378745727,     0.016671082571096,     0.055415537519058 ]
    - [     0.016671072074062,    -0.007111498217518,    -0.020767562870066 ]
    - [     0.055415529968226,    -0.020767570289571,    -0.051596062042212 ]
  - # (1, 53)
    - [     0.012867348594325,    -0.003212260175131,     0.004275224620199 ]
    - [    -0.003212260032849,    -0.006339407749315,     0.008908038737566 ]
    - [     0.004275225059053,     0.008908036663612,    -0.016066701494323 ]
  - # (1, 54)
    - [     0.021487204962679,    -0.004698259828963,     0.004442798438047 ]
    - [    -0.004698248430932,     0.010711235118572,     0.011855022649377 ]
    - [     0.004442795073719,     0.011855025015846,     0.023430091323966 ]
  - # (2, 1)
    - [    -0.314240682818410,    -0.001457873938569,    -0.054698935657665 ]
    - [    -0.001457853145556,     0.029694888184509,    -0.032163975896784 ]
    - [     0.054698974427763,     0.032163992414414,     0.093126340142782 ]
  - # (2, 2)
    - [     2.570707459108300,    -0.550064321199763,    -0.000000362456955 ]
    - [    -0.550064321199763,     1.309075406439863,     0.000001025362877 ]
    - [    -0.000000362456955,     0.000001025362877,     2.776849935878859 ]
  - # (2, 3)
    - [    -0.314240685604544,    -0.001457857405070,     0.054698973748097 ]
    - [    -0.001457853222844,     0.029694899855598,     0.032163980471848 ]
    - [    -0.054698930267707,    -0.032163959610260,     0.093126324965007 ]
  - # (2, 4)
    - [     0.005048040962983,    -0.002123480766271,    -0.014496421183769 ]
    - [    -0.002123494573369,     0.000177575467531,    -0.038681737107556 ]
    - [     0.014496402605403,     0.038681710504640,    -0.019683583945402 ]
  - # (2, 5)
    - [    -0.164238176360481,     0.170565428453836,     0.020087925035522 ]
    - [     0.170565418282236,    -0.120307537374295,    -0.060191204077999 ]
    - [    -0.020087770794953,     0.060191098939241,     0.093126331255397 ]
  - # (2, 6)
    - [    -0.068570579877052,    -0.298126131979723,    -0.000000104581818 ]
    - [    -0.298126003354069,    -0.752353866973422,    -0.000000262334879 ]
    - [     0.000000010008439,     0.000000034556930,     0.043155509827476 ]
  - # (2, 7)
    - [    -0.068570579552929,    -0.298126131638058,    -0.000000103804506 ]
    - [    -0.298126003422546,    -0.752353867163130,    -0.000000265459635 ]
    - [    -0.000000102155153,    -0.000000257996691,     0.043155509587297 ]
  - # (2, 8)
    - [    -0.164238177808999,     0.170565420606991,    -0.020087776829440 ]
    - [     0.170565420201361,    -0.120307514030927,     0.060191075028848 ]
    - [     0.020087861269176,    -0.060191139008959,     0.093126309156660 ]
  - # (2, 9)
    - [     0.005048040987168,    -0.002123475503887,     0.014496419567251 ]
    - [    -0.002123494506458,     0.000177589340388,     0.038681719282908 ]
    - [    -0.014496400619577,    -0.038681726860381,    -0.019683598626056 ]
  - # (2, 10)
    - [    -0.028058640005634,    -0.035115148784393,     0.024599602636959 ]
    - [    -0.012876496395103,    -0.003508563007492,     0.006835759263235 ]
    - [     0.032403757045891,     0.027660087329988,    -0.009264778259810 ]
  - # (2, 11)
    - [     0.079980671391010,    -0.084391216613894,     0.077440915743255 ]
    - [     0.014236334331206,    -0.000473174277223,     0.092847892370802 ]
    - [     0.002654141314121,     0.120875062268647,    -0.270926827574915 ]
  - # (2, 12)
    - [     0.067284677616745,    -0.032087260974354,     0.071805769617217 ]
    - [    -0.026056433702584,     0.000605231942160,    -0.023689794119207 ]