phonopy:
  version: "2.37.1"
  frequency_unit_conversion_factor: 15.633302
  symmetry_tolerance: 1.00000e-05

space_group:
  type: "I-43d"
  number: 220
  Hall_symbol: "I -4bd 2c 3"

primitive_matrix:
- [  0.000000000000000,  0.000000000000000,  1.000000000000000 ]
- [  1.000000000000000,  0.000000000000000,  0.000000000000000 ]
- [  0.000000000000000,  1.000000000000000,  0.000000000000000 ]

supercell_matrix:
- [   2,   0,   0 ]
- [   0,   2,   0 ]
- [   0,   0,   2 ]

primitive_cell:
  lattice:
  - [    -2.012931901230429,     5.693430792100878,     0.000000000000000 ] # a
  - [    -2.012931612318043,    -2.846715343779500,     4.930655645814261 ] # b
  - [     6.038795292511388,     0.000000000000000,     0.000000000000000 ] # c
  points:
  - symbol: Li # 1
    coordinates: [  0.500000000448478,  0.999999998452785,  0.011921498858482 ]
    mass: 6.940000
  - symbol: Li # 2
    coordinates: [  0.011921498814315,  0.499999999464065,  0.999999999836309 ]
    mass: 6.940000
  - symbol: Li # 3
    coordinates: [  0.988078500929399,  0.988078501524410,  0.988078500915394 ]
    mass: 6.940000
  - symbol: Li # 4
    coordinates: [  0.511921498356643,  0.500000001377523,  0.999999999942895 ]
    mass: 6.940000
  - symbol: Li # 5
    coordinates: [  0.500000000087054,  0.999999999387777,  0.511921498657533 ]
    mass: 6.940000
  - symbol: Li # 6
    coordinates: [  0.488078501036355,  0.488078502080371,  0.488078501497955 ]
    mass: 6.940000
  - symbol: Li # 7
    coordinates: [  0.999999999786674,  0.011921498663352,  0.500000000141530 ]
    mass: 6.940000
  - symbol: Li # 8
    coordinates: [  0.000000000574427,  0.511921499039906,  0.500000000131789 ]
    mass: 6.940000
  reciprocal_lattice: # without 2pi
  - [     0.000000000000000,     0.175641021471168,     0.101406390292849 ] # a*
  - [     0.000000000000000,     0.000000000000000,     0.202812784309714 ] # b*
  - [     0.165595942826557,     0.058547011143506,     0.101406388735806 ] # c*

unit_cell:
  lattice:
  - [     6.038795292511388,     0.000000000000000,     0.000000000000000 ] # a
  - [    -2.012931901230429,     5.693430792100878,     0.000000000000000 ] # b
  - [    -2.012931612318043,    -2.846715343779500,     4.930655645814261 ] # c
  points:
  - symbol: Li # 1
    coordinates: [  0.011921498858482,  0.500000000448478,  0.999999998452785 ]
    mass: 6.940000
    reduced_to: 1
  - symbol: Li # 2
    coordinates: [  0.999999999836309,  0.011921498814315,  0.499999999464065 ]
    mass: 6.940000
    reduced_to: 2
  - symbol: Li # 3
    coordinates: [  0.988078500915394,  0.988078500929399,  0.988078501524410 ]
    mass: 6.940000
    reduced_to: 3
  - symbol: Li # 4
    coordinates: [  0.999999999942895,  0.511921498356643,  0.500000001377523 ]
    mass: 6.940000
    reduced_to: 4
  - symbol: Li # 5
    coordinates: [  0.511921498657533,  0.500000000087054,  0.999999999387777 ]
    mass: 6.940000
    reduced_to: 5
  - symbol: Li # 6
    coordinates: [  0.488078501497955,  0.488078501036355,  0.488078502080371 ]
    mass: 6.940000
    reduced_to: 6
  - symbol: Li # 7
    coordinates: [  0.500000000141530,  0.999999999786674,  0.011921498663352 ]
    mass: 6.940000
    reduced_to: 7
  - symbol: Li # 8
    coordinates: [  0.500000000131789,  0.000000000574427,  0.511921499039906 ]
    mass: 6.940000
    reduced_to: 8

supercell:
  lattice:
  - [    12.077590585022776,     0.000000000000000,     0.000000000000000 ] # a
  - [    -4.025863802460859,    11.386861584201755,     0.000000000000000 ] # b
  - [    -4.025863224636087,    -5.693430687559000,     9.861311291628523 ] # c
  points:
  - symbol: Li # 1
    coordinates: [  0.005960749429241,  0.250000000224239,  0.499999999226392 ]
    mass: 6.940000
    reduced_to: 1
  - symbol: Li # 2
    coordinates: [  0.505960749429241,  0.250000000224239,  0.499999999226392 ]
    mass: 6.940000
    reduced_to: 1
  - symbol: Li # 3
    coordinates: [  0.005960749429241,  0.750000000224239,  0.499999999226392 ]
    mass: 6.940000
    reduced_to: 1
  - symbol: Li # 4
    coordinates: [  0.505960749429241,  0.750000000224239,  0.499999999226392 ]
    mass: 6.940000
    reduced_to: 1
  - symbol: Li # 5
    coordinates: [  0.005960749429241,  0.250000000224239,  0.999999999226392 ]
    mass: 6.940000
    reduced_to: 1
  - symbol: Li # 6
    coordinates: [  0.505960749429241,  0.250000000224239,  0.999999999226392 ]
    mass: 6.940000
    reduced_to: 1
  - symbol: Li # 7
    coordinates: [  0.005960749429241,  0.750000000224239,  0.999999999226392 ]
    mass: 6.940000
    reduced_to: 1
  - symbol: Li # 8
    coordinates: [  0.505960749429241,  0.750000000224239,  0.999999999226392 ]
    mass: 6.940000
    reduced_to: 1
  - symbol: Li # 9
    coordinates: [  0.499999999918154,  0.005960749407158,  0.249999999732032 ]
    mass: 6.940000
    reduced_to: 9
  - symbol: Li # 10
    coordinates: [  0.999999999918154,  0.005960749407158,  0.249999999732032 ]
    mass: 6.940000
    reduced_to: 9
  - symbol: Li # 11
    coordinates: [  0.499999999918154,  0.505960749407158,  0.249999999732032 ]
    mass: 6.940000
    reduced_to: 9
  - symbol: Li # 12
    coordinates: [  0.999999999918154,  0.505960749407158,  0.249999999732032 ]
    mass: 6.940000
    reduced_to: 9
  - symbol: Li # 13
    coordinates: [  0.499999999918154,  0.005960749407158,  0.749999999732032 ]
    mass: 6.940000
    reduced_to: 9
  - symbol: Li # 14
    coordinates: [  0.999999999918154,  0.005960749407158,  0.749999999732032 ]
    mass: 6.940000
    reduced_to: 9
  - symbol: Li # 15
    coordinates: [  0.499999999918154,  0.505960749407158,  0.749999999732032 ]
    mass: 6.940000
    reduced_to: 9
  - symbol: Li # 16
    coordinates: [  0.999999999918154,  0.505960749407158,  0.749999999732032 ]
    mass: 6.940000
    reduced_to: 9
  - symbol: Li # 17
    coordinates: [  0.494039250457697,  0.494039250464699,  0.494039250762205 ]
    mass: 6.940000
    reduced_to: 17
  - symbol: Li # 18
    coordinates: [  0.994039250457697,  0.494039250464699,  0.494039250762205 ]
    mass: 6.940000
    reduced_to: 17
  - symbol: Li # 19
    coordinates: [  0.494039250457697,  0.994039250464700,  0.494039250762205 ]
    mass: 6.940000
    reduced_to: 17
  - symbol: Li # 20
    coordinates: [  0.994039250457697,  0.994039250464700,  0.494039250762205 ]
    mass: 6.940000
    reduced_to: 17
  - symbol: Li # 21
    coordinates: [  0.494039250457697,  0.494039250464699,  0.994039250762205 ]
    mass: 6.940000
    reduced_to: 17
  - symbol: Li # 22
    coordinates: [  0.994039250457697,  0.494039250464699,  0.994039250762205 ]
    mass: 6.940000
    reduced_to: 17
  - symbol: Li # 23
    coordinates: [  0.494039250457697,  0.994039250464700,  0.994039250762205 ]
    mass: 6.940000
    reduced_to: 17
  - symbol: Li # 24
    coordinates: [  0.994039250457697,  0.994039250464700,  0.994039250762205 ]
    mass: 6.940000
    reduced_to: 17
  - symbol: Li # 25
    coordinates: [  0.499999999971448,  0.255960749178322,  0.250000000688761 ]
    mass: 6.940000
    reduced_to: 25
  - symbol: Li # 26
    coordinates: [  0.999999999971448,  0.255960749178322,  0.250000000688761 ]
    mass: 6.940000
    reduced_to: 25
  - symbol: Li # 27
    coordinates: [  0.499999999971448,  0.755960749178322,  0.250000000688761 ]
    mass: 6.940000
    reduced_to: 25
  - symbol: Li # 28
    coordinates: [  0.999999999971448,  0.755960749178322,  0.250000000688761 ]
    mass: 6.940000
    reduced_to: 25
  - symbol: Li # 29
    coordinates: [  0.499999999971448,  0.255960749178322,  0.750000000688761 ]
    mass: 6.940000
    reduced_to: 25
  - symbol: Li # 30
    coordinates: [  0.999999999971448,  0.255960749178322,  0.750000000688761 ]
    mass: 6.940000
    reduced_to: 25
  - symbol: Li # 31
    coordinates: [  0.499999999971448,  0.755960749178322,  0.750000000688761 ]
    mass: 6.940000
    reduced_to: 25
  - symbol: Li # 32
    coordinates: [  0.999999999971448,  0.755960749178322,  0.750000000688761 ]
    mass: 6.940000
    reduced_to: 25
  - symbol: Li # 33
    coordinates: [  0.255960749328767,  0.250000000043527,  0.499999999693889 ]
    mass: 6.940000
    reduced_to: 33
  - symbol: Li # 34
    coordinates: [  0.755960749328767,  0.250000000043527,  0.499999999693889 ]
    mass: 6.940000
    reduced_to: 33
  - symbol: Li # 35
    coordinates: [  0.255960749328767,  0.750000000043527,  0.499999999693889 ]
    mass: 6.940000
    reduced_to: 33
  - symbol: Li # 36
    coordinates: [  0.755960749328767,  0.750000000043527,  0.499999999693889 ]
    mass: 6.940000
    reduced_to: 33
  - symbol: Li # 37
    coordinates: [  0.255960749328767,  0.250000000043527,  0.999999999693889 ]
    mass: 6.940000
    reduced_to: 33
  - symbol: Li # 38
    coordinates: [  0.755960749328767,  0.250000000043527,  0.999999999693889 ]
    mass: 6.940000
    reduced_to: 33
  - symbol: Li # 39
    coordinates: [  0.255960749328767,  0.750000000043527,  0.999999999693889 ]
    mass: 6.940000
    reduced_to: 33
  - symbol: Li # 40
    coordinates: [  0.755960749328767,  0.750000000043527,  0.999999999693889 ]
    mass: 6.940000
    reduced_to: 33
  - symbol: Li # 41
    coordinates: [  0.244039250748978,  0.244039250518178,  0.244039251040186 ]
    mass: 6.940000
    reduced_to: 41
  - symbol: Li # 42
    coordinates: [  0.744039250748978,  0.244039250518178,  0.244039251040186 ]
    mass: 6.940000
    reduced_to: 41
  - symbol: Li # 43
    coordinates: [  0.244039250748978,  0.744039250518178,  0.244039251040186 ]
    mass: 6.940000
    reduced_to: 41
  - symbol: Li # 44
    coordinates: [  0.744039250748978,  0.744039250518178,  0.244039251040186 ]
    mass: 6.940000
    reduced_to: 41
  - symbol: Li # 45
    coordinates: [  0.244039250748978,  0.244039250518178,  0.744039251040186 ]
    mass: 6.940000
    reduced_to: 41
  - symbol: Li # 46
    coordinates: [  0.744039250748978,  0.244039250518178,  0.744039251040186 ]
    mass: 6.940000
    reduced_to: 41
  - symbol: Li # 47
    coordinates: [  0.244039250748978,  0.744039250518178,  0.744039251040186 ]
    mass: 6.940000
    reduced_to: 41
  - symbol: Li # 48
    coordinates: [  0.744039250748978,  0.744039250518178,  0.744039251040186 ]
    mass: 6.940000
    reduced_to: 41
  - symbol: Li # 49
    coordinates: [  0.250000000070765,  0.499999999893337,  0.005960749331676 ]
    mass: 6.940000
    reduced_to: 49
  - symbol: Li # 50
    coordinates: [  0.750000000070765,  0.499999999893337,  0.005960749331676 ]
    mass: 6.940000
    reduced_to: 49
  - symbol: Li # 51
    coordinates: [  0.250000000070765,  0.999999999893337,  0.005960749331676 ]
    mass: 6.940000
    reduced_to: 49
  - symbol: Li # 52
    coordinates: [  0.750000000070765,  0.999999999893337,  0.005960749331676 ]
    mass: 6.940000
    reduced_to: 49
  - symbol: Li # 53
    coordinates: [  0.250000000070765,  0.499999999893337,  0.505960749331676 ]
    mass: 6.940000
    reduced_to: 49
  - symbol: Li # 54
    coordinates: [  0.750000000070765,  0.499999999893337,  0.505960749331676 ]
    mass: 6.940000
    reduced_to: 49
  - symbol: Li # 55
    coordinates: [  0.250000000070765,  0.999999999893337,  0.505960749331676 ]
    mass: 6.940000
    reduced_to: 49
  - symbol: Li # 56
    coordinates: [  0.750000000070765,  0.999999999893337,  0.505960749331676 ]
    mass: 6.940000
    reduced_to: 49
  - symbol: Li # 57
    coordinates: [  0.250000000065895,  0.000000000287214,  0.255960749519953 ]
    mass: 6.940000
    reduced_to: 57
  - symbol: Li # 58
    coordinates: [  0.750000000065895,  0.000000000287214,  0.255960749519953 ]
    mass: 6.940000
    reduced_to: 57
  - symbol: Li # 59
    coordinates: [  0.250000000065895,  0.500000000287214,  0.255960749519953 ]
    mass: 6.940000
    reduced_to: 57
  - symbol: Li # 60
    coordinates: [  0.750000000065895,  0.500000000287214,  0.255960749519953 ]
    mass: 6.940000
    reduced_to: 57
  - symbol: Li # 61
    coordinates: [  0.250000000065895,  0.000000000287214,  0.755960749519953 ]
    mass: 6.940000
    reduced_to: 57
  - symbol: Li # 62
    coordinates: [  0.750000000065895,  0.000000000287214,  0.755960749519953 ]
    mass: 6.940000
    reduced_to: 57
  - symbol: Li # 63
    coordinates: [  0.250000000065895,  0.500000000287214,  0.755960749519953 ]
    mass: 6.940000
    reduced_to: 57
  - symbol: Li # 64
    coordinates: [  0.750000000065895,  0.500000000287214,  0.755960749519953 ]
    mass: 6.940000
    reduced_to: 57

displacements:
- atom:    1
  displacement:
    [  -0.0033333335402547,  0.0094280903426629,  0.0000000000000000 ]
  forces:
  - [  -0.0083790775388479, -0.0101356478407979, -0.0000049568479881 ]
  - [  -0.0119783524423838, -0.0000073601258919,  0.0000002472661436 ]
  - [  -0.0119772991165519,  0.0000013785902411, -0.0000000779982656 ]
  - [  -0.0119756683707237, -0.0000013214303181,  0.0000004372559488 ]
  - [  -0.0119739938527346, -0.0000061806058511, -0.0000021280720830 ]
  - [  -0.0119768353179097, -0.0000017057172954, -0.0000003752065822 ]
  - [  -0.0119777787476778, -0.0000017364509404,  0.0000010384246707 ]
  - [  -0.0119734965264797, -0.0000057101715356,  0.0000033160904422 ]
  - [   0.0039800647646189, -0.0113027282059193,  0.0000301386462525 ]
  - [   0.0035724230110645, -0.0109391715377569,  0.0005157524137758 ]
  - [   0.0039935484528542, -0.0112922163680196,  0.0000028099748306 ]
  - [   0.0039806356653571, -0.0113713778555393,  0.0000636157346889 ]
  - [   0.0039902767166495, -0.0112897465005517, -0.0000027430942282 ]
  - [   0.0039640306495130, -0.0117507921531796,  0.0002973310183734 ]
  - [   0.0039638094604015, -0.0112992357462645,  0.0000183251686394 ]
  - [   0.0036342926323414, -0.0109523124992847,  0.0003614308079705 ]
  - [   0.0039870473556221,  0.0056576412171125,  0.0097801573574543 ]
  - [   0.0025006984360516,  0.0094056967645884,  0.0096945650875568 ]
  - [   0.0039927279576659,  0.0056554721668363,  0.0097784399986267 ]
  - [   0.0028184438124299,  0.0094127105548978,  0.0098616778850555 ]
  - [   0.0039881598204374,  0.0056578107178211,  0.0097802616655827 ]
  - [   0.0039854608476162,  0.0056547648273408,  0.0097854537889361 ]
  - [   0.0039879675023258,  0.0056539187207818,  0.0097764208912849 ]
  - [   0.0039907470345497,  0.0056566335260868,  0.0097754150629044 ]
  - [   0.0039880275726318, -0.0112908892333508, -0.0000065438243837 ]
  - [   0.0045357933267951, -0.0107460301369429, -0.0012684123357758 ]
  - [   0.0039959484711289, -0.0112901087850332,  0.0000006780028343 ]
  - [   0.0039982032030821, -0.0112952301278710, -0.0000055818818510 ]
  - [   0.0039982218295336, -0.0112921502441168, -0.0000033056712709 ]
  - [   0.0045318962074816, -0.0109355673193932, -0.0010322612943128 ]
  - [   0.0039959480054677, -0.0112908734008670, -0.0000073387736848 ]
  - [   0.0039881672710180, -0.0112859765067697,  0.0000010525400285 ]
  - [  -0.0133176660165191, -0.0002146994229406,  0.0000002117594704 ]
  - [  -0.0133165344595909, -0.0002235239371657,  0.0000002045417204 ]
  - [  -0.0119733288884163,  0.0000017965403458,  0.0000001544458428 ]
  - [  -0.0119846928864717, -0.0000014285715224,  0.0000008754059309 ]
  - [  -0.0119847450405359, -0.0000024812761694,  0.0000004860339686 ]
  - [  -0.0119767356663942, -0.0000012555974536, -0.0000031813979149 ]
  - [  -0.0119788208976388, -0.0000001996277206,  0.0000042143710743 ]
  - [  -0.0119821736589074, -0.0000029080547392,  0.0000011781230569 ]
  - [   0.0039753494784236,  0.0056469985283911,  0.0097499778494239 ]
  - [   0.0036558485589921,  0.0059653520584106,  0.0094302892684937 ]
  - [   0.0039899330586195,  0.0056464681401849,  0.0097792912274599 ]
  - [   0.0039770882576704,  0.0056062471121550,  0.0097323674708605 ]
  - [   0.0035450719296932,  0.0060381088405848,  0.0092494692653418 ]
  - [   0.0039816824719310,  0.0056322780437768,  0.0097495140507817 ]
  - [   0.0039901826530695,  0.0051532983779907,  0.0094710551202297 ]
  - [   0.0039941240102053,  0.0056472942233086,  0.0097780590876937 ]
  - [   0.0040262429974973,  0.0056485184468329, -0.0097797894850373 ]
  - [   0.0039940089918673,  0.0056486390531063, -0.0097796060144901 ]
  - [   0.0039900806732476,  0.0056458697654307, -0.0097773056477308 ]
  - [   0.0040210131555796,  0.0056630647741258, -0.0097810151055455 ]
  - [   0.0043960390612483,  0.0063413870520890, -0.0097678415477276 ]
  - [   0.0040850457735360,  0.0056121656671166, -0.0097839096561074 ]
  - [   0.0044608800671995,  0.0053346948698163, -0.0097711896523833 ]
  - [   0.0042447829619050,  0.0061767185106874, -0.0097823943942785 ]
  - [   0.0039964546449482,  0.0056435419246554, -0.0097752762958407 ]
  - [   0.0045848125591874,  0.0061144633218646, -0.0086579015478492 ]
  - [   0.0039923354052007,  0.0056419423781335, -0.0097726434469223 ]
  - [   0.0039960891008377,  0.0056481212377548, -0.0097719365730882 ]
  - [   0.0039892559871078,  0.0056461039930582, -0.0097827520221472 ]
  - [   0.0039987098425627,  0.0056512500159442, -0.0097788618877530 ]
  - [   0.0044901194050908,  0.0060720667243004, -0.0086030019447207 ]
  - [   0.0039894781075418,  0.0056481631472707, -0.0097735729068518 ]
- atom:    1
  displacement:
    [   0.0033333335402547, -0.0094280903426629,  0.0000000000000000 ]
  forces:
  - [  -0.0156085826456547,  0.0101488977670670, -0.0000047080684453 ]
  - [  -0.0119752362370491,  0.0000075936550274,  0.0000003047753125 ]
  - [  -0.0119764097034931, -0.0000016730045900,  0.0000003573950380 ]
  - [  -0.0119780078530312,  0.0000009916839190, -0.0000000746222213 ]
  - [  -0.0119810234755278,  0.0000058215227909,  0.0000029660295695 ]
  - [  -0.0119770932942629,  0.0000012150849216,  0.0000013593817130 ]
  - [  -0.0119773829355836,  0.0000015520490706, -0.0000000614672899 ]
  - [  -0.0119807757437229,  0.0000058952718973, -0.0000021106097847 ]
  - [   0.0040042852051556, -0.0112815238535404, -0.0000306376023218 ]
  - [   0.0044171828776598, -0.0116444267332554, -0.0005242378683761 ]
  - [   0.0039911242201924, -0.0112914685159922, -0.0000026965572033 ]
  - [   0.0040047834627330, -0.0112471822649240, -0.0000436032714788 ]
  - [   0.0039945915341377, -0.0112939123064280,  0.0000020039733499 ]
  - [   0.0040221638046205, -0.0108190681785345, -0.0003075154963881 ]
  - [   0.0040218774229288, -0.0112842470407486, -0.0000190602440853 ]
  - [   0.0043505313806236, -0.0116344755515456, -0.0003614891902544 ]
  - [   0.0039968970231712,  0.0056343143805861,  0.0097783245146275 ]
  - [   0.0054468219168484,  0.0019783384632319,  0.0098612215369940 ]
  - [   0.0039922753348947,  0.0056363479234278,  0.0097797401249409 ]
  - [   0.0051953499205410,  0.0017841340741143,  0.0096939243376255 ]
  - [   0.0039960276335478,  0.0056337011046708,  0.0097778923809528 ]
  - [   0.0039997273124754,  0.0056369109079242,  0.0097727235406637 ]
  - [   0.0039965352043509,  0.0056379018351436,  0.0097823850810528 ]
  - [   0.0039937281981111,  0.0056348582729697,  0.0097833750769496 ]
  - [   0.0039967503398657, -0.0112926894798875,  0.0000065681479100 ]
  - [   0.0034542400389910, -0.0118445092812181,  0.0012637844774872 ]
  - [   0.0039884238503873, -0.0112934093922377, -0.0000005918554962 ]
  - [   0.0039857821539044, -0.0112874330952764,  0.0000058903824538 ]
  - [   0.0039857886731625, -0.0112912878394127,  0.0000016684643924 ]
  - [   0.0034504635259509, -0.0116399591788650,  0.0010302541777492 ]
  - [   0.0039884448051453, -0.0112928040325642,  0.0000059321646404 ]
  - [   0.0039969598874450, -0.0112980427220464, -0.0000028112553991 ]
  - [  -0.0106371138244867,  0.0002237648586743, -0.0000000004656613 ]
  - [  -0.0106359394267201,  0.0002148994826712, -0.0000000494765118 ]
  - [  -0.0119804404675961, -0.0000029910979720,  0.0000001380312824 ]
  - [  -0.0119687803089619,  0.0000018162600099, -0.0000003436653060 ]
  - [  -0.0119687579572201,  0.0000018433202058, -0.0000000632135198 ]
  - [  -0.0119759049266577,  0.0000005918554962,  0.0000038613798097 ]
  - [  -0.0119746383279562, -0.0000000069021553, -0.0000033189808164 ]
  - [  -0.0119700515642762,  0.0000029630027711,  0.0000000093132257 ]
  - [   0.0040106233209372,  0.0056454651057720,  0.0098071806132793 ]
  - [   0.0043288460001349,  0.0053235851228237,  0.0101267267018557 ]
  - [   0.0039948946796358,  0.0056454055011272,  0.0097783952951431 ]
  - [   0.0040086712688208,  0.0057184756733477,  0.0098449867218733 ]
  - [   0.0044449726119637,  0.0052538267336786,  0.0103175155818462 ]
  - [   0.0040025627240539,  0.0056596361100674,  0.0098086856305599 ]
  - [   0.0039943372830749,  0.0061235520988703,  0.0100766699761152 ]
  - [   0.0039907218888402,  0.0056447032839060,  0.0097796441987157 ]
  - [   0.0039585502818227,  0.0056446380913258, -0.0097770327702165 ]
  - [   0.0039899493567646,  0.0056443829089403, -0.0097775552421808 ]
  - [   0.0039944420568645,  0.0056460062041879, -0.0097796786576509 ]
  - [   0.0039639985188842,  0.0056289480999112, -0.0097782490774989 ]
  - [   0.0035977896768600,  0.0049566244706511, -0.0097904074937105 ]
  - [   0.0039308825507760,  0.0056587234139442, -0.0097749773412943 ]
  - [   0.0035084746778011,  0.0059668831527233, -0.0097875297069550 ]
  - [   0.0037375013343990,  0.0051176962442696, -0.0097759161144495 ]
  - [   0.0039875553920865,  0.0056482749059796, -0.0097827017307281 ]
  - [   0.0033956728875637,  0.0051847351714969, -0.0109014790505171 ]
  - [   0.0039919805712998,  0.0056497007608414, -0.0097846686840057 ]
  - [   0.0039887316524982,  0.0056434059515595, -0.0097855385392904 ]
  - [   0.0039943754673004,  0.0056459270417690, -0.0097765205428004 ]
  - [   0.0039860014803708,  0.0056403037160635, -0.0097798909991980 ]
  - [   0.0034985556267202,  0.0052121095359325, -0.0109537951648235 ]
  - [   0.0039952988736331,  0.0056437449529767, -0.0097851604223251 ]

force_constants:
  format: "full"
  shape: [ 64, 64 ]
  elements:
  - # (1, 1)
    - [     1.084424982857849,     0.000000000450990,    -0.000000000405291 ]
    - [     0.000000000450990,     1.075750906487746,    -0.000000000180666 ]
    - [    -0.000000000405291,    -0.000000000180666,     1.075750907308033 ]
  - # (1, 2)
    - [    -0.000468147308704,     0.000000000289565,    -0.000000000327823 ]
    - [     0.000000000259442,     0.000793460606153,    -0.000000000363160 ]
    - [    -0.000000000358074,    -0.000000000002809,     0.000793461194320 ]
  - # (1, 3)
    - [     0.000670254837107,     0.000285798914480,    -0.000010275251903 ]
    - [     0.000285798549486,    -0.000059876025776,     0.000016709272537 ]
    - [    -0.000010275279259,     0.000016709510100,     0.000787473537909 ]
  - # (1, 4)
    - [     0.000109365894891,    -0.000084154613744,     0.000022778564165 ]
    - [    -0.000084154862531,     0.000093686802313,    -0.000020288239273 ]
    - [     0.000022778473180,    -0.000020287958019,     0.000208459961272 ]
  - # (1, 5)
    - [     0.000670254899277,    -0.000134000780123,     0.000252646580765 ]
    - [    -0.000134000854051,     0.000590106823173,     0.000358558274462 ]
    - [     0.000252646433632,     0.000358558403204,     0.000137490814855 ]
  - # (1, 6)
    - [     0.000109365856205,     0.000022350514914,    -0.000084269411958 ]
    - [     0.000022350423602,     0.000162196524014,     0.000059842026177 ]
    - [    -0.000084269616766,     0.000059842319175,     0.000139950256506 ]
  - # (1, 7)
    - [     0.000109365818491,     0.000061804692246,     0.000061491070424 ]
    - [     0.000061804551502,     0.000197336435243,    -0.000039554272540 ]
    - [     0.000061490765977,    -0.000039554025803,     0.000104810524818 ]
  - # (1, 8)
    - [     0.000670254915701,    -0.000151797321698,    -0.000242371434222 ]
    - [    -0.000151797413530,     0.000561164937941,    -0.000375268010383 ]
    - [    -0.000242371834605,    -0.000375267900037,     0.000166432670153 ]
  - # (1, 9)
    - [     0.005452436904404,     0.002967873615303,     0.005573535790034 ]
    - [     0.003210537796666,     0.002174231254031,    -0.001252656950016 ]
    - [     0.005359882052048,    -0.001515265006498,     0.001191395255854 ]
  - # (1, 10)
    - [    -0.047323178630221,     0.028260863008125,     0.052135800770056 ]
    - [     0.028069138563864,    -0.027407515390332,    -0.036718225431674 ]
    - [     0.051996877630382,    -0.036914696585889,    -0.074211590338183 ]
  - # (1, 11)
    - [     0.000075672558600,    -0.000297860170305,     0.000166864017099 ]
    - [    -0.000101556856765,    -0.000065543048496,    -0.000233094497302 ]
    - [     0.000275384306901,    -0.000079623435269,    -0.000095506256074 ]
  - # (1, 12)
    - [     0.000596789396612,     0.001251142831997,     0.003215232559533 ]
    - [     0.001493807001141,     0.007029878972055,    -0.004548257530458 ]
    - [     0.003038861250856,    -0.004837228078989,     0.001191395405708 ]
  - # (1, 13)
    - [    -0.000266210812162,     0.000317686946484,    -0.000138237967548 ]
    - [     0.000134961836166,    -0.000106175269506,     0.000203476223192 ]
    - [    -0.000237918608372,     0.000062506784272,    -0.000125263489261 ]
  - # (1, 14)
    - [    -0.000262654921325,     0.002922269507493,     0.001958575762454 ]
    - [     0.002988638084118,     0.050444642061259,    -0.031383455666391 ]
    - [     0.001870707172551,    -0.031510145445172,     0.015595795165016 ]
  - # (1, 15)
    - [     0.042952878261374,     0.018201268606280,     0.030331617394449 ]
    - [     0.018267637965853,     0.007229108769138,     0.008739661998625 ]
    - [     0.030241462171991,     0.008614588549179,     0.015595793363139 ]
  - # (1, 16)
    - [    -0.044096467507838,     0.021465226953548,     0.035646805157823 ]
    - [     0.022394091549029,    -0.028589857032075,    -0.025731193892672 ]
    - [     0.036141872149705,    -0.025031065871080,    -0.055661368114407 ]
  - # (1, 17)
    - [     0.000574142278738,     0.000768925399416,    -0.000138184938655 ]
    - [     0.000725197300291,    -0.000967138368491,    -0.000145519139941 ]
    - [     0.000107623194007,     0.000004220877419,     0.000338215020099 ]
  - # (1, 18)
    - [    -0.033767445072928,     0.144040046657578,    -0.003102359871700 ]
    - [     0.144296955751658,    -0.342970378619217,     0.007737936195758 ]
    - [    -0.003297020933958,     0.008250856443803,     0.022592582764991 ]
  - # (1, 19)
    - [    -0.000710160461692,    -0.000265911914030,     0.000083532403845 ]
    - [    -0.000273301887537,    -0.001109442599605,     0.000098453388226 ]
    - [    -0.000088876593391,    -0.000000074166430,     0.000213200465074 ]
  - # (1, 20)
    - [    -0.015185670464267,     0.121023428705745,     0.002600312597396 ]
    - [     0.120676889816846,    -0.361781646469222,    -0.007994144245743 ]
    - [     0.002754048982383,    -0.008466641474982,     0.022822087096026 ]
  - # (1, 21)
    - [     0.000246425399758,     0.000576048701625,     0.000106962371742 ]
    - [     0.000502881204716,    -0.001072966477671,    -0.000087978312895 ]
    - [     0.000369767024386,     0.000013687606521,     0.000771759928329 ]
  - # (1, 22)
    - [     0.000032198833990,     0.000158245838247,     0.000321976827454 ]
    - [     0.000767779589948,    -0.000888821973284,    -0.000559791836720 ]
    - [     0.000003415884358,     0.000415610700417,    -0.000022316197716 ]
  - # (1, 23)
    - [    -0.000231633571271,     0.000347917140288,    -0.000466220009736 ]
    - [     0.000374899374281,    -0.000723063343943,     0.000155325493674 ]
    - [    -0.000658473687549,     0.000112927907693,    -0.000651705549252 ]
  - # (1, 24)
    - [    -0.000030239426288,     0.000732560837526,     0.000015886227447 ]
    - [     0.000148954117545,    -0.000896753898714,     0.000427847764183 ]
    - [     0.000386185282212,    -0.000545139481519,     0.000048054275744 ]
  - # (1, 25)
    - [    -0.000710160761989,     0.000060615376606,    -0.000272052980186 ]
    - [     0.000213620493337,    -0.000074860797613,     0.000597389877656 ]
    - [    -0.000192248605024,     0.000498862233636,    -0.000821380801980 ]
  - # (1, 26)
    - [    -0.015185667549069,    -0.062763651126669,     0.103509207825114 ]
    - [    -0.062723519821117,    -0.080456582668544,     0.170889757909305 ]
    - [     0.103132223012067,     0.170417257585913,    -0.258502998326853 ]
  - # (1, 27)
    - [     0.000032198341973,    -0.000357962448788,    -0.000023943830543 ]
    - [    -0.000386847843269,    -0.000301374934142,    -0.000076448217671 ]
    - [     0.000663208309499,     0.000898954303351,    -0.000609762763426 ]
  - # (1, 28)
    - [     0.000246425482797,    -0.000380656129610,     0.000445391223380 ]
    - [    -0.000571668362627,     0.000278409182401,     0.000766529571558 ]
    - [     0.000250623957034,     0.000868195318667,    -0.000579615746295 ]
  - # (1, 29)
    - [     0.000574142608127,    -0.000264791039371,     0.000735001000428 ]
    - [    -0.000455803538454,    -0.000049307771944,     0.000525688982593 ]
    - [     0.000574227265840,     0.000675428933207,    -0.000579616091535 ]
  - # (1, 30)
    - [    -0.033767441649582,    -0.069333301079682,     0.126293519826679 ]
    - [    -0.069293171602264,    -0.061874811393731,     0.154039754151586 ]
    - [     0.126613334711615,     0.154552673151957,    -0.258502999952782 ]
  - # (1, 31)
    - [    -0.000030239360369,    -0.000380037967307,     0.000626472820981 ]
    - [    -0.000408923518368,    -0.000238936947773,     0.000924930146460 ]
    - [    -0.000064094901964,    -0.000048057027407,    -0.000609763038190 ]
  - # (1, 32)
    - [    -0.000231633640173,     0.000229800113710,     0.000534414749931 ]
    - [     0.000382805484680,    -0.000553387992982,    -0.000014965947673 ]
    - [     0.000653908770697,    -0.000057363587385,    -0.000821380752347 ]
  - # (1, 33)
    - [    -0.402086762348364,    -0.000000004790009,     0.000000003362745 ]
    - [    -0.000000004783774,     0.023252413240347,    -0.000011540663088 ]
    - [     0.000000010276410,     0.000011540168483,     0.023252413905766 ]
  - # (1, 34)