phonopy:
  version: "2.37.1"
  frequency_unit_conversion_factor: 15.633302
  symmetry_tolerance: 1.00000e-05

space_group:
  type: "P1"
  number: 1
  Hall_symbol: "P 1"

primitive_matrix:
- [  1.000000000000000, -0.000000000000000, -1.000000000000000 ]
- [  0.000000000000000,  0.000000000000000, -1.000000000000000 ]
- [  0.000000000000000,  1.000000000000000, -1.000000000000000 ]

supercell_matrix:
- [   2,   0,   0 ]
- [   0,   2,   0 ]
- [   0,   0,   2 ]

primitive_cell:
  lattice:
  - [     5.665885434747850,     0.000000000000000,     0.000000000000000 ] # a
  - [    -2.489160696498136,    -2.254296667107417,     4.565567662327902 ] # b
  - [    -1.616386643010302,    -3.538688232181083,    -4.565567662327902 ] # c
  points:
  - symbol: Li # 1
    coordinates: [  0.824306250402605,  0.545380183202186,  0.550790614154623 ]
    mass: 6.940000
  - symbol: Li # 2
    coordinates: [  0.303508784223900,  0.025252205878860,  0.551287795170027 ]
    mass: 6.940000
  - symbol: Li # 3
    coordinates: [  0.402263935498593,  0.628694342300092,  0.212083840165065 ]
    mass: 6.940000
  - symbol: Li # 4
    coordinates: [  0.881492564747693,  0.108589993756225,  0.212432919963653 ]
    mass: 6.940000
  - symbol: Ga # 5
    coordinates: [  0.811779209531977,  0.528598881644765,  0.042547536499237 ]
    mass: 69.723000
  - symbol: Ga # 6
    coordinates: [  0.893908119962917,  0.125270160481811,  0.720742994753912 ]
    mass: 69.723000
  - symbol: Sn # 7
    coordinates: [  0.392236324143768,  0.608281752325710,  0.702230912790997 ]
    mass: 118.710000
  - symbol: Sn # 8
    coordinates: [  0.313482755983057,  0.045504158412497,  0.061159865549870 ]
    mass: 118.710000
  reciprocal_lattice: # without 2pi
  - [     0.176494920611557,    -0.125083746005022,     0.034464136647837 ] # a*
  - [     0.000000000000000,    -0.172622580135298,     0.133796613720987 ] # b*
  - [     0.000000000000000,    -0.172622580135298,    -0.085234199961034 ] # c*

unit_cell:
  lattice:
  - [     5.665885434747850,     0.000000000000000,     0.000000000000000 ] # a
  - [    -1.560338095239413,     5.792984899288500,     0.000000000000000 ] # b
  - [    -2.489160696498135,    -2.254296667107417,     4.565567662327902 ] # c
  points:
  - symbol: Li # 1
    coordinates: [  0.273515636247982,  0.449209385845377,  0.994589569047563 ]
    mass: 6.940000
    reduced_to: 1
  - symbol: Li # 2
    coordinates: [  0.752220989053873,  0.448712204829973,  0.473964410708833 ]
    mass: 6.940000
    reduced_to: 2
  - symbol: Li # 3
    coordinates: [  0.190180095333528,  0.787916159834935,  0.416610502135027 ]
    mass: 6.940000
    reduced_to: 3
  - symbol: Li # 4
    coordinates: [  0.669059644784040,  0.787567080036347,  0.896157073792572 ]
    mass: 6.940000
    reduced_to: 4
  - symbol: Ga # 5
    coordinates: [  0.769231673032740,  0.957452463500763,  0.486051345145528 ]
    mass: 69.723000
    reduced_to: 5
  - symbol: Ga # 6
    coordinates: [  0.173165125209005,  0.279257005246088,  0.404527165727899 ]
    mass: 69.723000
    reduced_to: 6
  - symbol: Sn # 7
    coordinates: [  0.690005411352771,  0.297769087209003,  0.906050839534713 ]
    mass: 118.710000
    reduced_to: 7
  - symbol: Sn # 8
    coordinates: [  0.252322890433187,  0.938840134450130,  0.984344292862627 ]
    mass: 118.710000
    reduced_to: 8

supercell:
  lattice:
  - [    11.331770869495699,     0.000000000000000,     0.000000000000000 ] # a
  - [    -3.120676190478826,    11.585969798577000,     0.000000000000000 ] # b
  - [    -4.978321392996270,    -4.508593334214835,     9.131135324655805 ] # c
  points:
  - symbol: Li # 1
    coordinates: [  0.136757818123991,  0.224604692922688,  0.497294784523781 ]
    mass: 6.940000
    reduced_to: 1
  - symbol: Li # 2
    coordinates: [  0.636757818123991,  0.224604692922688,  0.497294784523781 ]
    mass: 6.940000
    reduced_to: 1
  - symbol: Li # 3
    coordinates: [  0.136757818123991,  0.724604692922688,  0.497294784523781 ]
    mass: 6.940000
    reduced_to: 1
  - symbol: Li # 4
    coordinates: [  0.636757818123991,  0.724604692922688,  0.497294784523781 ]
    mass: 6.940000
    reduced_to: 1
  - symbol: Li # 5
    coordinates: [  0.136757818123991,  0.224604692922688,  0.997294784523781 ]
    mass: 6.940000
    reduced_to: 1
  - symbol: Li # 6
    coordinates: [  0.636757818123991,  0.224604692922688,  0.997294784523781 ]
    mass: 6.940000
    reduced_to: 1
  - symbol: Li # 7
    coordinates: [  0.136757818123991,  0.724604692922688,  0.997294784523781 ]
    mass: 6.940000
    reduced_to: 1
  - symbol: Li # 8
    coordinates: [  0.636757818123991,  0.724604692922688,  0.997294784523781 ]
    mass: 6.940000
    reduced_to: 1
  - symbol: Li # 9
    coordinates: [  0.376110494526936,  0.224356102414987,  0.236982205354416 ]
    mass: 6.940000
    reduced_to: 9
  - symbol: Li # 10
    coordinates: [  0.876110494526936,  0.224356102414987,  0.236982205354416 ]
    mass: 6.940000
    reduced_to: 9
  - symbol: Li # 11
    coordinates: [  0.376110494526936,  0.724356102414986,  0.236982205354416 ]
    mass: 6.940000
    reduced_to: 9
  - symbol: Li # 12
    coordinates: [  0.876110494526936,  0.724356102414986,  0.236982205354416 ]
    mass: 6.940000
    reduced_to: 9
  - symbol: Li # 13
    coordinates: [  0.376110494526936,  0.224356102414987,  0.736982205354416 ]
    mass: 6.940000
    reduced_to: 9
  - symbol: Li # 14
    coordinates: [  0.876110494526936,  0.224356102414987,  0.736982205354416 ]
    mass: 6.940000
    reduced_to: 9
  - symbol: Li # 15
    coordinates: [  0.376110494526936,  0.724356102414986,  0.736982205354416 ]
    mass: 6.940000
    reduced_to: 9
  - symbol: Li # 16
    coordinates: [  0.876110494526936,  0.724356102414986,  0.736982205354416 ]
    mass: 6.940000
    reduced_to: 9
  - symbol: Li # 17
    coordinates: [  0.095090047666764,  0.393958079917468,  0.208305251067514 ]
    mass: 6.940000
    reduced_to: 17
  - symbol: Li # 18
    coordinates: [  0.595090047666764,  0.393958079917468,  0.208305251067514 ]
    mass: 6.940000
    reduced_to: 17
  - symbol: Li # 19
    coordinates: [  0.095090047666764,  0.893958079917468,  0.208305251067514 ]
    mass: 6.940000
    reduced_to: 17
  - symbol: Li # 20
    coordinates: [  0.595090047666764,  0.893958079917468,  0.208305251067514 ]
    mass: 6.940000
    reduced_to: 17
  - symbol: Li # 21
    coordinates: [  0.095090047666764,  0.393958079917468,  0.708305251067514 ]
    mass: 6.940000
    reduced_to: 17
  - symbol: Li # 22
    coordinates: [  0.595090047666764,  0.393958079917468,  0.708305251067514 ]
    mass: 6.940000
    reduced_to: 17
  - symbol: Li # 23
    coordinates: [  0.095090047666764,  0.893958079917468,  0.708305251067514 ]
    mass: 6.940000
    reduced_to: 17
  - symbol: Li # 24
    coordinates: [  0.595090047666764,  0.893958079917468,  0.708305251067514 ]
    mass: 6.940000
    reduced_to: 17
  - symbol: Li # 25
    coordinates: [  0.334529822392020,  0.393783540018173,  0.448078536896286 ]
    mass: 6.940000
    reduced_to: 25
  - symbol: Li # 26
    coordinates: [  0.834529822392020,  0.393783540018173,  0.448078536896286 ]
    mass: 6.940000
    reduced_to: 25
  - symbol: Li # 27
    coordinates: [  0.334529822392020,  0.893783540018174,  0.448078536896286 ]
    mass: 6.940000
    reduced_to: 25
  - symbol: Li # 28
    coordinates: [  0.834529822392020,  0.893783540018174,  0.448078536896286 ]
    mass: 6.940000
    reduced_to: 25
  - symbol: Li # 29
    coordinates: [  0.334529822392020,  0.393783540018173,  0.948078536896286 ]
    mass: 6.940000
    reduced_to: 25
  - symbol: Li # 30
    coordinates: [  0.834529822392020,  0.393783540018173,  0.948078536896286 ]
    mass: 6.940000
    reduced_to: 25
  - symbol: Li # 31
    coordinates: [  0.334529822392020,  0.893783540018174,  0.948078536896286 ]
    mass: 6.940000
    reduced_to: 25
  - symbol: Li # 32
    coordinates: [  0.834529822392020,  0.893783540018174,  0.948078536896286 ]
    mass: 6.940000
    reduced_to: 25
  - symbol: Ga # 33
    coordinates: [  0.384615836516370,  0.478726231750381,  0.243025672572764 ]
    mass: 69.723000
    reduced_to: 33
  - symbol: Ga # 34
    coordinates: [  0.884615836516370,  0.478726231750381,  0.243025672572764 ]
    mass: 69.723000
    reduced_to: 33
  - symbol: Ga # 35
    coordinates: [  0.384615836516370,  0.978726231750381,  0.243025672572764 ]
    mass: 69.723000
    reduced_to: 33
  - symbol: Ga # 36
    coordinates: [  0.884615836516370,  0.978726231750381,  0.243025672572764 ]
    mass: 69.723000
    reduced_to: 33
  - symbol: Ga # 37
    coordinates: [  0.384615836516370,  0.478726231750381,  0.743025672572764 ]
    mass: 69.723000
    reduced_to: 33
  - symbol: Ga # 38
    coordinates: [  0.884615836516370,  0.478726231750381,  0.743025672572764 ]
    mass: 69.723000
    reduced_to: 33
  - symbol: Ga # 39
    coordinates: [  0.384615836516370,  0.978726231750381,  0.743025672572764 ]
    mass: 69.723000
    reduced_to: 33
  - symbol: Ga # 40
    coordinates: [  0.884615836516370,  0.978726231750381,  0.743025672572764 ]
    mass: 69.723000
    reduced_to: 33
  - symbol: Ga # 41
    coordinates: [  0.086582562604502,  0.139628502623044,  0.202263582863950 ]
    mass: 69.723000
    reduced_to: 41
  - symbol: Ga # 42
    coordinates: [  0.586582562604502,  0.139628502623044,  0.202263582863950 ]
    mass: 69.723000
    reduced_to: 41
  - symbol: Ga # 43
    coordinates: [  0.086582562604502,  0.639628502623044,  0.202263582863950 ]
    mass: 69.723000
    reduced_to: 41
  - symbol: Ga # 44
    coordinates: [  0.586582562604502,  0.639628502623044,  0.202263582863950 ]
    mass: 69.723000
    reduced_to: 41
  - symbol: Ga # 45
    coordinates: [  0.086582562604502,  0.139628502623044,  0.702263582863950 ]
    mass: 69.723000
    reduced_to: 41
  - symbol: Ga # 46
    coordinates: [  0.586582562604502,  0.139628502623044,  0.702263582863950 ]
    mass: 69.723000
    reduced_to: 41
  - symbol: Ga # 47
    coordinates: [  0.086582562604502,  0.639628502623044,  0.702263582863950 ]
    mass: 69.723000
    reduced_to: 41
  - symbol: Ga # 48
    coordinates: [  0.586582562604502,  0.639628502623044,  0.702263582863950 ]
    mass: 69.723000
    reduced_to: 41
  - symbol: Sn # 49
    coordinates: [  0.345002705676386,  0.148884543604501,  0.453025419767356 ]
    mass: 118.710000
    reduced_to: 49
  - symbol: Sn # 50
    coordinates: [  0.845002705676386,  0.148884543604501,  0.453025419767356 ]
    mass: 118.710000
    reduced_to: 49
  - symbol: Sn # 51
    coordinates: [  0.345002705676386,  0.648884543604501,  0.453025419767356 ]
    mass: 118.710000
    reduced_to: 49
  - symbol: Sn # 52
    coordinates: [  0.845002705676386,  0.648884543604501,  0.453025419767356 ]
    mass: 118.710000
    reduced_to: 49
  - symbol: Sn # 53
    coordinates: [  0.345002705676386,  0.148884543604501,  0.953025419767356 ]
    mass: 118.710000
    reduced_to: 49
  - symbol: Sn # 54
    coordinates: [  0.845002705676386,  0.148884543604501,  0.953025419767356 ]
    mass: 118.710000
    reduced_to: 49
  - symbol: Sn # 55
    coordinates: [  0.345002705676386,  0.648884543604501,  0.953025419767356 ]
    mass: 118.710000
    reduced_to: 49
  - symbol: Sn # 56
    coordinates: [  0.845002705676386,  0.648884543604501,  0.953025419767356 ]
    mass: 118.710000
    reduced_to: 49
  - symbol: Sn # 57
    coordinates: [  0.126161445216594,  0.469420067225065,  0.492172146431314 ]
    mass: 118.710000
    reduced_to: 57
  - symbol: Sn # 58
    coordinates: [  0.626161445216594,  0.469420067225065,  0.492172146431314 ]
    mass: 118.710000
    reduced_to: 57
  - symbol: Sn # 59
    coordinates: [  0.126161445216594,  0.969420067225065,  0.492172146431314 ]
    mass: 118.710000
    reduced_to: 57
  - symbol: Sn # 60
    coordinates: [  0.626161445216594,  0.969420067225065,  0.492172146431314 ]
    mass: 118.710000
    reduced_to: 57
  - symbol: Sn # 61
    coordinates: [  0.126161445216594,  0.469420067225065,  0.992172146431314 ]
    mass: 118.710000
    reduced_to: 57
  - symbol: Sn # 62
    coordinates: [  0.626161445216594,  0.469420067225065,  0.992172146431314 ]
    mass: 118.710000
    reduced_to: 57
  - symbol: Sn # 63
    coordinates: [  0.126161445216594,  0.969420067225065,  0.992172146431314 ]
    mass: 118.710000
    reduced_to: 57
  - symbol: Sn # 64
    coordinates: [  0.626161445216594,  0.969420067225065,  0.992172146431314 ]
    mass: 118.710000
    reduced_to: 57

displacements:
- atom:    1
  displacement:
    [   0.0100000000000000,  0.0000000000000000,  0.0000000000000000 ]
  forces:
  - [  -0.0922574996948242,  0.1181193292140961, -0.0160716958343983 ]
  - [  -0.0719112604856491,  0.1162713915109634, -0.0163286179304123 ]
  - [  -0.0711842328310013,  0.1168492287397385, -0.0164025016129017 ]
  - [  -0.0711237043142319,  0.1164039149880409, -0.0163976922631264 ]
  - [  -0.0712682157754898,  0.1162292286753654, -0.0161076039075851 ]
  - [  -0.0713271945714951,  0.1164949685335159, -0.0166313201189041 ]
  - [  -0.0711567252874374,  0.1163511052727699, -0.0164356529712677 ]
  - [  -0.0711221471428871,  0.1162387579679489, -0.0166153572499752 ]
  - [   0.0338965803384781,  0.0527845993638039,  0.1246929615736008 ]
  - [   0.0347023978829384,  0.0527596175670624,  0.1248945072293282 ]
  - [   0.0339850634336472,  0.0527283586561680,  0.1247242018580437 ]
  - [   0.0340466499328613,  0.0527573823928833,  0.1248410046100616 ]
  - [   0.0355236530303955,  0.0518738254904747,  0.1264594793319702 ]
  - [   0.0339993797242641,  0.0527350865304470,  0.1246962100267410 ]
  - [   0.0340211540460587,  0.0527911931276321,  0.1248443126678467 ]
  - [   0.0340052135288715,  0.0527861118316650,  0.1247514635324478 ]
  - [  -0.0335329808294773, -0.0526108182966709, -0.1256465911865234 ]
  - [  -0.0336403623223305, -0.0524386204779148, -0.1257278621196747 ]
  - [  -0.0336569920182228, -0.0525483712553978, -0.1259251981973648 ]
  - [  -0.0335252881050110, -0.0525453388690948, -0.1257628053426743 ]
  - [  -0.0320890024304390, -0.0533647760748863, -0.1272855550050735 ]
  - [  -0.0339721851050854, -0.0526635013520718, -0.1259111464023590 ]
  - [  -0.0335483103990555, -0.0525187999010086, -0.1257616132497787 ]
  - [  -0.0336277261376381, -0.0524273514747620, -0.1257248371839523 ]
  - [   0.0721178054809570, -0.1148029565811157,  0.0149449259042740 ]
  - [   0.0704829022288322, -0.1167656108736992,  0.0154698081314564 ]
  - [   0.0708061233162880, -0.1165443584322929,  0.0154541768133640 ]
  - [   0.0704836547374725, -0.1163103431463242,  0.0154903456568718 ]
  - [   0.0707525983452797, -0.1166255474090576,  0.0156111679971218 ]
  - [   0.0706095322966576, -0.1166386976838112,  0.0154647678136826 ]
  - [   0.0706843361258507, -0.1166034936904907,  0.0153889171779156 ]
  - [   0.0706994384527206, -0.1165804713964462,  0.0155080519616604 ]
  - [   0.0706265419721603,  0.0653036683797836, -0.0123579390347004 ]
  - [   0.0706840977072716,  0.0652722418308258, -0.0123885087668896 ]
  - [   0.0701997652649879,  0.0655249431729317, -0.0121938958764076 ]
  - [   0.0703385844826698,  0.0660525038838387, -0.0110975708812475 ]
  - [   0.0711616724729538,  0.0656344443559647, -0.0123558230698109 ]
  - [   0.0706203505396843,  0.0653730928897858, -0.0125094372779131 ]
  - [   0.0707146748900414,  0.0654048994183540, -0.0125371143221855 ]
  - [   0.0705774873495102,  0.0652580410242081, -0.0124529935419559 ]
  - [  -0.0698897093534470, -0.0649239718914032,  0.0104530043900013 ]
  - [  -0.0701569914817810, -0.0655262470245361,  0.0124137997627258 ]
  - [  -0.0702870637178421, -0.0654400587081909,  0.0121081434190273 ]
  - [  -0.0702935606241226, -0.0655098035931587,  0.0120910257101059 ]
  - [  -0.0697830617427826, -0.0642668977379799,  0.0102696493268013 ]
  - [  -0.0701773166656494, -0.0656438618898392,  0.0121650062501431 ]
  - [  -0.0701681375503540, -0.0655437186360359,  0.0119310095906258 ]
  - [  -0.0703159645199776, -0.0654756873846054,  0.0121013298630714 ]
  - [   0.1373558938503265,  0.0134622324258089, -0.0773898959159851 ]
  - [   0.1363039314746857,  0.0154757425189018, -0.0757008790969849 ]
  - [   0.1280688941478729,  0.0145727861672640, -0.0771399512887001 ]
  - [   0.1280226111412048,  0.0142577998340130, -0.0771620944142342 ]
  - [   0.1279116421937943,  0.0143084954470396, -0.0773078203201294 ]
  - [   0.1279515624046326,  0.0143707767128944, -0.0773274451494217 ]
  - [   0.1280700266361237,  0.0141899548470974, -0.0772012695670128 ]
  - [   0.1280536502599716,  0.0142417848110199, -0.0771158933639526 ]
  - [  -0.1274213343858719, -0.0159689094871283,  0.0792508721351624 ]
  - [  -0.1282253116369247, -0.0142047666013241,  0.0794282257556915 ]
  - [  -0.1292844116687775, -0.0163811948150396,  0.0798466727137566 ]
  - [  -0.1295856237411499, -0.0150301139801741,  0.0794473960995674 ]
  - [  -0.1282736510038376, -0.0142833814024925,  0.0795819759368896 ]
  - [  -0.1282448619604111, -0.0141316875815392,  0.0795287191867828 ]
  - [  -0.1282807737588882, -0.0142574198544025,  0.0796992257237434 ]
  - [  -0.1281462311744690, -0.0143007598817348,  0.0794222429394722 ]
- atom:    1
  displacement:
    [  -0.0100000000000000,  0.0000000000000000,  0.0000000000000000 ]
  forces:
  - [  -0.0500775314867496,  0.1147914081811905, -0.0166959352791309 ]
  - [  -0.0703862756490707,  0.1165227070450783, -0.0164866559207439 ]
  - [  -0.0711116492748260,  0.1159505471587181, -0.0164109244942665 ]
  - [  -0.0711716115474701,  0.1163955852389336, -0.0164139494299889 ]
  - [  -0.0710265934467316,  0.1165709644556046, -0.0167061500251293 ]
  - [  -0.0709678381681442,  0.1163052543997765, -0.0161828063428402 ]
  - [  -0.0711378157138824,  0.1164468601346016, -0.0163787044584751 ]
  - [  -0.0711714029312134,  0.1165606379508972, -0.0161973237991333 ]
  - [   0.0340714082121849,  0.0527652278542519,  0.1248206123709679 ]
  - [   0.0332680195569992,  0.0527965202927589,  0.1246080249547958 ]
  - [   0.0339948162436485,  0.0528222657740116,  0.1247800588607788 ]
  - [   0.0339328423142433,  0.0527927428483963,  0.1246638745069504 ]
  - [   0.0324714332818985,  0.0536652766168118,  0.1230697408318520 ]
  - [   0.0339938327670097,  0.0528215728700161,  0.1248045638203621 ]
  - [   0.0339599624276161,  0.0527641549706459,  0.1246634945273399 ]
  - [   0.0339758992195129,  0.0527656823396683,  0.1247550845146179 ]
  - [  -0.0337529890239239, -0.0522989109158516, -0.1258046776056290 ]
  - [  -0.0336451679468155, -0.0524679608643055, -0.1257201582193375 ]
  - [  -0.0336342602968216, -0.0523567609488964, -0.1255243122577667 ]
  - [  -0.0337642058730125, -0.0523632355034351, -0.1256883889436722 ]
  - [  -0.0352228507399559, -0.0515288189053535, -0.1241375580430031 ]
  - [  -0.0333336889743805, -0.0522483289241791, -0.1255482733249664 ]
  - [  -0.0337401777505875, -0.0523879528045654, -0.1256886422634125 ]
  - [  -0.0336601883172989, -0.0524802319705486, -0.1257256120443344 ]
  - [   0.0691231861710548, -0.1184128969907761,  0.0159775502979755 ]
  - [   0.0707484781742096, -0.1164754629135132,  0.0154654346406460 ]
  - [   0.0704177767038345, -0.1166989579796791,  0.0154792480170727 ]
  - [   0.0707395523786545, -0.1169255077838898,  0.0154455229640007 ]
  - [   0.0704641118645668, -0.1166148185729980,  0.0153218023478985 ]
  - [   0.0706080794334412, -0.1166017875075340,  0.0154702998697758 ]
  - [   0.0705348998308182, -0.1166368871927261,  0.0155451856553555 ]
  - [   0.0705188587307930, -0.1166607961058617,  0.0154271833598614 ]
  - [   0.0706919133663177,  0.0654668658971786, -0.0125577654689550 ]
  - [   0.0706328675150871,  0.0654995143413544, -0.0125278681516647 ]
  - [   0.0711147263646126,  0.0652529075741768, -0.0127181131392717 ]
  - [   0.0709944516420364,  0.0647259876132011, -0.0138156209141016 ]
  - [   0.0701526105403900,  0.0651280805468559, -0.0125747509300709 ]
  - [   0.0706961601972580,  0.0653989836573601, -0.0124083161354065 ]
  - [   0.0706053152680397,  0.0653644949197769, -0.0123798158019781 ]
  - [   0.0707426369190216,  0.0655116736888885, -0.0124598667025566 ]
  - [  -0.0707072690129280, -0.0660437941551208,  0.0136657543480396 ]
  - [  -0.0704412609338760, -0.0654459074139595,  0.0117065180093050 ]
  - [  -0.0703092291951180, -0.0655281245708466,  0.0120111089199781 ]
  - [  -0.0703016966581345, -0.0654605627059937,  0.0120288468897343 ]
  - [  -0.0708150416612625, -0.0667117089033127,  0.0138611234724522 ]
  - [  -0.0704219713807106, -0.0653241574764252,  0.0119611211121082 ]
  - [  -0.0704296156764030, -0.0654237419366837,  0.0121904611587524 ]
  - [  -0.0702793970704079, -0.0654937550425529,  0.0120216570794582 ]
  - [   0.1190581023693085,  0.0150123611092567, -0.0769466012716293 ]
  - [   0.1195866912603378,  0.0129665303975344, -0.0786219835281372 ]
  - [   0.1280584335327148,  0.0139533560723066, -0.0771532058715820 ]
  - [   0.1281116902828217,  0.0142716076225042, -0.0771309807896614 ]
  - [   0.1282214373350143,  0.0142258573323488, -0.0769874751567841 ]
  - [   0.1281793713569641,  0.0141635872423649, -0.0769683718681335 ]
  - [   0.1280628144741058,  0.0143422223627567, -0.0770961865782738 ]
  - [   0.1280794590711594,  0.0142916161566973, -0.0771800577640533 ]
  - [  -0.1290387362241745, -0.0125777088105679,  0.0796663463115692 ]
  - [  -0.1282444000244141, -0.0143315326422453,  0.0794841498136520 ]
  - [  -0.1272103786468506, -0.0121473111212254,  0.0790688395500183 ]
  - [  -0.1268731355667114, -0.0134816374629736,  0.0794554799795151 ]
  - [  -0.1281954050064087, -0.0142553225159645,  0.0793322175741196 ]
  - [  -0.1282282322645187, -0.0144074074923992,  0.0793827027082443 ]
  - [  -0.1281865984201431, -0.0142820067703724,  0.0792114809155464 ]
  - [  -0.1283252239227295, -0.0142390020191669,  0.0794915780425072 ]
- atom:    1
  displacement:
    [  -0.0026008044744530,  0.0096558695147390,  0.0000000000000000 ]
  forces:
  - [  -0.0640831962227821,  0.0987736582756042, -0.0166663862764835 ]
  - [  -0.0710698291659355,  0.1165776029229164, -0.0164009891450405 ]
  - [  -0.0707067251205444,  0.1146229729056358, -0.0164276286959648 ]
  - [  -0.0711498931050301,  0.1164724007248878, -0.0164105072617531 ]
  - [  -0.0712807625532150,  0.1163818687200546, -0.0163215249776840 ]
  - [  -0.0710094794631004,  0.1162127554416656, -0.0162318050861359 ]
  - [  -0.0711912512779236,  0.1164351776242256, -0.0163514763116837 ]
  - [  -0.0713086202740669,  0.1161948367953300, -0.0167603082954884 ]
  - [   0.0339632555842400,  0.0528632886707783,  0.1248621419072151 ]
  - [   0.0334628298878670,  0.0529855005443096,  0.1242043077945709 ]
  - [   0.0339744910597801,  0.0528136566281319,  0.1248252317309380 ]
  - [   0.0338696725666523,  0.0527178309857845,  0.1245572268962860 ]
  - [   0.0327600687742233,  0.0536789335310459,  0.1230744048953056 ]
  - [   0.0339907556772232,  0.0528394877910614,  0.1248689517378807 ]
  - [   0.0339060351252556,  0.0526824258267879,  0.1245702505111694 ]
  - [   0.0339907519519329,  0.0528360232710838,  0.1247733756899834 ]
  - [  -0.0337811335921288, -0.0524376370012760, -0.1253554224967957 ]
  - [  -0.0336709767580032, -0.0524774640798569, -0.1257591247558594 ]
  - [  -0.0337367281317711, -0.0524752698838711, -0.1255176216363907 ]
  - [  -0.0337535925209522, -0.0525927431881428, -0.1258028298616409 ]
  - [  -0.0348225980997086, -0.0521361567080021, -0.1245838850736618 ]
  - [  -0.0335779897868633, -0.0522428974509239, -0.1255835741758347 ]
  - [  -0.0337950959801674, -0.0525721013545990, -0.1258023530244827 ]
  - [  -0.0336334630846977, -0.0524276942014694, -0.1257319897413254 ]
  - [   0.0719668865203857, -0.1153347194194794,  0.0151548497378826 ]
  - [   0.0705099403858185, -0.1164464801549911,  0.0154619961977005 ]
  - [   0.0706348419189453, -0.1165402308106422,  0.0153368078172207 ]
  - [   0.0709420442581177, -0.1167406290769577,  0.0155072174966335 ]
  - [   0.0705662369728088, -0.1164818182587624,  0.0154832638800144 ]
  - [   0.0705913081765175, -0.1166142895817757,  0.0154379308223724 ]
  - [   0.0706055313348770, -0.1166020482778549,  0.0154999233782291 ]
  - [   0.0706239640712738, -0.1166798472404480,  0.0153938904404640 ]
  - [   0.0706357061862946,  0.0654410421848297, -0.0124017465859652 ]
  - [   0.0705645158886909,  0.0655903667211533, -0.0126425102353096 ]
  - [   0.0708637088537216,  0.0653551369905472, -0.0125612765550613 ]
  - [   0.0715213492512703,  0.0665704458951950, -0.0101890340447426 ]
  - [   0.0712230801582336,  0.0661731809377670, -0.0113052967935801 ]
  - [   0.0706873238086700,  0.0654655545949936, -0.0124215614050627 ]
  - [   0.0706468224525452,  0.0653876513242722, -0.0123999118804932 ]
  - [   0.0704792663455009,  0.0653243958950043, -0.0123748946934938 ]
  - [  -0.0704624503850937, -0.0655741319060326,  0.0125421211123466 ]
  - [  -0.0703596696257591, -0.0654778629541397,  0.0120329707860947 ]
  - [  -0.0702179521322250, -0.0656339749693871,  0.0120119601488113 ]
  - [  -0.0703477114439011, -0.0655368566513062,  0.0120002850890160 ]
  - [  -0.0695398747920990, -0.0644367858767509,  0.0104117654263973 ]
  - [  -0.0702555850148201, -0.0653467550873756,  0.0120502151548862 ]
  - [  -0.0704695582389832, -0.0654441714286804,  0.0122738592326641 ]
  - [  -0.0703377723693848, -0.0654477477073669,  0.0120266191661358 ]
  - [   0.1225135922431946,  0.0132551454007626, -0.0771016329526901 ]
  - [   0.1286038756370544,  0.0135208722203970, -0.0772821456193924 ]
  - [   0.1283188909292221,  0.0142666865140200, -0.0772759765386581 ]
  - [   0.1280726194381714,  0.0141639783978462, -0.0771421790122986 ]
  - [   0.1279851794242859,  0.0144331548362970, -0.0771626532077789 ]
  - [   0.1281236559152603,  0.0141577571630478, -0.0771847516298294 ]
  - [   0.1280104517936707,  0.0142859444022179, -0.0771638974547386 ]
  - [   0.1280767470598221,  0.0141761023551226, -0.0771805495023727 ]
  - [  -0.1300005614757538, -0.0077428575605154,  0.0792551264166832 ]
  - [  -0.1282651424407959, -0.0142812374979258,  0.0794742628931999 ]
  - [  -0.1293888539075851, -0.0060115903615952,  0.0789786800742149 ]
  - [  -0.1277578771114349, -0.0138609744608402,  0.0794822722673416 ]
  - [  -0.1281674504280090, -0.0141723342239857,  0.0793661326169968 ]
  - [  -0.1281405240297318, -0.0143264643847942,  0.0795405954122543 ]
  - [  -0.1282924413681030, -0.0142267346382141,  0.0794684067368507 ]
  - [  -0.1281106472015381, -0.0143333971500397,  0.0795704051852226 ]
- atom:    1
  displacement:
    [   0.0026008044744530, -0.0096558695147390,  0.0000000000000000 ]
  forces:
  - [  -0.0782676339149475,  0.1339466571807861, -0.0162362605333328 ]
  - [  -0.0712238103151321,  0.1162202209234238, -0.0164117887616158 ]
  - [  -0.0715929791331291,  0.1181834936141968, -0.0163859687745571 ]
  - [  -0.0711454749107361,  0.1163270473480225, -0.0164010263979435 ]
  - [  -0.0710133761167526,  0.1164190471172333, -0.0164920724928379 ]
  - [  -0.0712860971689224,  0.1165878400206566, -0.0165828764438629 ]
  - [  -0.0711034983396530,  0.1163627728819847, -0.0164624862372875 ]
  - [  -0.0709848925471306,  0.1166051775217056, -0.0160528905689716 ]
  - [   0.0340159088373184,  0.0526881590485573,  0.1246445253491402 ]
  - [   0.0345113426446915,  0.0525758229196072,  0.1252969503402710 ]
  - [   0.0340053141117096,  0.0527373775839806,  0.1246792525053024 ]
  - [   0.0341122522950172,  0.0528302639722824,  0.1249506622552872 ]
  - [   0.0352368131279945,  0.0518668554723263,  0.1264590024948120 ]
  - [   0.0339896678924561,  0.0527121424674988,  0.1246379166841507 ]
  - [   0.0340749099850655,  0.0528705492615700,  0.1249378174543381 ]
  - [   0.0339898914098740,  0.0527151674032211,  0.1247329339385033 ]
  - [  -0.0335108488798141, -0.0524793937802315, -0.1260808855295181 ]
  - [  -0.0336155369877815, -0.0524287968873978, -0.1256886720657349 ]
  - [  -0.0335566624999046, -0.0524265095591545, -0.1259275227785110 ]
  - [  -0.0335352942347527, -0.0523163527250290, -0.1256478130817413 ]
  - [  -0.0324703641235828, -0.0527664124965668, -0.1268607974052429 ]
  - [  -0.0337119996547699, -0.0526653118431568, -0.1258679926395416 ]
  - [  -0.0334898158907890, -0.0523367635905743, -0.1256468594074249 ]
  - [  -0.0336538478732109, -0.0524790622293949, -0.1257181912660599 ]
  - [   0.0692609101533890, -0.1178972125053406,  0.0157799348235130 ]
  - [   0.0707219243049622, -0.1167954355478287,  0.0154736414551735 ]
  - [   0.0705865845084190, -0.1167055964469910,  0.0155985467135906 ]
  - [   0.0702813565731049, -0.1164895966649055,  0.0154277607798576 ]
  - [   0.0706513822078705, -0.1167585030198097,  0.0154502578079700 ]
  - [   0.0706272125244141, -0.1166264265775681,  0.0154970474541187 ]
  - [   0.0706124752759933, -0.1166379004716873,  0.0154353938996792 ]
  - [   0.0705935880541801, -0.1165628358721733,  0.0155402608215809 ]
  - [   0.0706844851374626,  0.0653289556503296, -0.0125159751623869 ]
  - [   0.0707554891705513,  0.0651784762740135, -0.0122734308242798 ]
  - [   0.0704552084207535,  0.0654164105653763, -0.0123535264283419 ]
  - [   0.0697940438985825,  0.0642023310065269, -0.0147360209375620 ]
  - [   0.0701019689440727,  0.0646092742681503, -0.0136024635285139 ]
  - [   0.0706294924020767,  0.0653052479028702, -0.0124960765242577 ]
  - [   0.0706688463687897,  0.0653835311532021, -0.0125216767191887 ]
  - [   0.0708390399813652,  0.0654468759894371, -0.0125405397266150 ]
  - [  -0.0701449513435364, -0.0653972178697586,  0.0116100907325745 ]
  - [  -0.0702368617057800, -0.0654925704002380,  0.0120892040431499 ]
  - [  -0.0703793987631798, -0.0653316825628281,  0.0121090766042471 ]
  - [  -0.0702490508556366, -0.0654318034648895,  0.0121184028685093 ]
  - [  -0.0710683390498161, -0.0665320158004761,  0.0137257333844900 ]
  - [  -0.0703407749533653, -0.0656231343746185,  0.0120737701654434 ]
  - [  -0.0701271593570709, -0.0655235499143600,  0.0118496567010880 ]
  - [  -0.0702572315931320, -0.0655217394232750,  0.0120968334376812 ]