# Thermal properties / unit cell (natom)

unit:
  temperature:   K
  free_energy:   kJ/mol
  entropy:       J/K/mol
  heat_capacity: J/K/mol

natom: 12   
cutoff_frequency: 0.00000
num_modes: 178200
num_integrated_modes: 178187

zero_point_energy:      45.7819607

thermal_properties:
- temperature:         0.0000000
  free_energy:        45.7819607
  entropy:             0.0000000
  heat_capacity:       0.0000000
  energy:             45.7819607

- temperature:        10.0000000
  free_energy:        45.7752421
  entropy:             2.4277858
  heat_capacity:       6.0544537
  energy:             45.7995199

- temperature:        20.0000000
  free_energy:        45.7099977
  entropy:            11.4850435
  heat_capacity:      22.5252848
  energy:             45.9396986

- temperature:        30.0000000
  free_energy:        45.5349561
  entropy:            23.8202927
  heat_capacity:      39.2530956
  energy:             46.2495649

- temperature:        40.0000000
  free_energy:        45.2299241
  entropy:            37.3033831
  heat_capacity:      55.2004507
  energy:             46.7220594

- temperature:        50.0000000
  free_energy:        44.7870821
  entropy:            51.3408252
  heat_capacity:      71.2871560
  energy:             47.3541234

- temperature:        60.0000000
  free_energy:        44.2017184
  entropy:            65.7963866
  heat_capacity:      87.8634278
  energy:             48.1495016

- temperature:        70.0000000
  free_energy:        43.4699762
  entropy:            80.6042791
  heat_capacity:     104.6971406
  energy:             49.1122758

- temperature:        80.0000000
  free_energy:        42.5887557
  entropy:            95.6743970
  heat_capacity:     121.3108342
  energy:             50.2427074

- temperature:        90.0000000
  free_energy:        41.5559991
  entropy:           110.8910776
  heat_capacity:     137.2403615
  energy:             51.5361961

- temperature:       100.0000000
  free_energy:        40.3708528
  entropy:           126.1325113
  heat_capacity:     152.1517799
  energy:             52.9841040

- temperature:       110.0000000
  free_energy:        39.0336410
  entropy:           141.2869455
  heat_capacity:     165.8592689
  energy:             54.5752050

- temperature:       120.0000000
  free_energy:        37.5457171
  entropy:           156.2611213
  heat_capacity:     178.2982310
  energy:             56.2970517

- temperature:       130.0000000
  free_energy:        35.9092632
  entropy:           170.9825856
  heat_capacity:     189.4877360
  energy:             58.1369993

- temperature:       140.0000000
  free_energy:        34.1270859
  entropy:           185.3984643
  heat_capacity:     199.4974268
  energy:             60.0828709

- temperature:       150.0000000
  free_energy:        32.2024343
  entropy:           199.4726606
  heat_capacity:     208.4230970
  energy:             62.1233334

- temperature:       160.0000000
  free_energy:        30.1388479
  entropy:           213.1826499
  heat_capacity:     216.3704584
  energy:             64.2480719

- temperature:       170.0000000
  free_energy:        27.9400361
  entropy:           226.5164610
  heat_capacity:     223.4452007
  energy:             66.4478345

- temperature:       180.0000000
  free_energy:        25.6097866
  entropy:           239.4700840
  heat_capacity:     229.7474079
  energy:             68.7144017

- temperature:       190.0000000
  free_energy:        23.1518961
  entropy:           252.0453593
  heat_capacity:     235.3687989
  energy:             71.0405144

- temperature:       200.0000000
  free_energy:        20.5701208
  entropy:           264.2483149
  heat_capacity:     240.3916985
  energy:             73.4197838

- temperature:       210.0000000
  free_energy:        17.8681413
  entropy:           276.0878861
  heat_capacity:     244.8890158
  energy:             75.8465974

- temperature:       220.0000000
  free_energy:        15.0495383
  entropy:           287.5749463
  heat_capacity:     248.9247661
  energy:             78.3160265

- temperature:       230.0000000
  free_energy:        12.1177772
  entropy:           298.7215831
  heat_capacity:     252.5548520
  energy:             80.8237413

- temperature:       240.0000000
  free_energy:         9.0761988
  entropy:           309.5405641
  heat_capacity:     255.8279363
  energy:             83.3659342

- temperature:       250.0000000
  free_energy:         5.9280145
  entropy:           320.0449482
  heat_capacity:     258.7863120
  energy:             85.9392516

- temperature:       260.0000000
  free_energy:         2.6763049
  entropy:           330.2478057
  heat_capacity:     261.4667186
  energy:             88.5407344

- temperature:       270.0000000
  free_energy:        -0.6759795
  entropy:           340.1620213
  heat_capacity:     263.9010825
  energy:             91.1677663

- temperature:       280.0000000
  free_energy:        -4.1260153
  entropy:           349.8001577
  heat_capacity:     266.1171734
  energy:             93.8180289

- temperature:       290.0000000
  free_energy:        -7.6711029
  entropy:           359.1743657
  heat_capacity:     268.1391788
  energy:             96.4894631

- temperature:       300.0000000
  free_energy:       -11.3086618
  entropy:           368.2963266
  heat_capacity:     269.9882014
  energy:             99.1802361

- temperature:       310.0000000
  free_energy:       -15.0362259
  entropy:           377.1772201
  heat_capacity:     271.6826873
  energy:            101.8887123

- temperature:       320.0000000
  free_energy:       -18.8514383
  entropy:           385.8277098
  heat_capacity:     273.2387938
  energy:            104.6134288

- temperature:       330.0000000
  free_energy:       -22.7520460
  entropy:           394.2579405
  heat_capacity:     274.6707032
  energy:            107.3530744

- temperature:       340.0000000
  free_energy:       -26.7358951
  entropy:           402.4775463
  heat_capacity:     275.9908926
  energy:            110.1064707

- temperature:       350.0000000
  free_energy:       -30.8009253
  entropy:           410.4956628
  heat_capacity:     277.2103627
  energy:            112.8725566

- temperature:       360.0000000
  free_energy:       -34.9451656
  entropy:           418.3209453
  heat_capacity:     278.3388349
  energy:            115.6503747

- temperature:       370.0000000
  free_energy:       -39.1667288
  entropy:           425.9615882
  heat_capacity:     279.3849190
  energy:            118.4390588

- temperature:       380.0000000
  free_energy:       -43.4638078
  entropy:           433.4253469
  heat_capacity:     280.3562576
  energy:            121.2378240

- temperature:       390.0000000
  free_energy:       -47.8346707
  entropy:           440.7195596
  heat_capacity:     281.2596495
  energy:            124.0459576

- temperature:       400.0000000
  free_energy:       -52.2776570
  entropy:           447.8511696
  heat_capacity:     282.1011558
  energy:            126.8628108

- temperature:       410.0000000
  free_energy:       -56.7911740
  entropy:           454.8267475
  heat_capacity:     282.8861915
  energy:            129.6877925

- temperature:       420.0000000
  free_energy:       -61.3736926
  entropy:           461.6525125
  heat_capacity:     283.6196045
  energy:            132.5203626

- temperature:       430.0000000
  free_energy:       -66.0237445
  entropy:           468.3343525
  heat_capacity:     284.3057436
  energy:            135.3600271

- temperature:       440.0000000
  free_energy:       -70.7399185
  entropy:           474.8778444
  heat_capacity:     284.9485177
  energy:            138.2063330

- temperature:       450.0000000
  free_energy:       -75.5208579
  entropy:           481.2882723
  heat_capacity:     285.5514470
  energy:            141.0588646

- temperature:       460.0000000
  free_energy:       -80.3652572
  entropy:           487.5706455
  heat_capacity:     286.1177076
  energy:            143.9172397

- temperature:       470.0000000
  free_energy:       -85.2718598
  entropy:           493.7297149
  heat_capacity:     286.6501703
  energy:            146.7811062

- temperature:       480.0000000
  free_energy:       -90.2394555
  entropy:           499.7699889
  heat_capacity:     287.1514348
  energy:            149.6501392

- temperature:       490.0000000
  free_energy:       -95.2668779
  entropy:           505.6957483
  heat_capacity:     287.6238590
  energy:            152.5240388

- temperature:       500.0000000
  free_energy:      -100.3530023
  entropy:           511.5110594
  heat_capacity:     288.0695854
  energy:            155.4025274

- temperature:       510.0000000
  free_energy:      -105.4967438
  entropy:           517.2197879
  heat_capacity:     288.4905637
  energy:            158.2853480

- temperature:       520.0000000
  free_energy:      -110.6970551
  entropy:           522.8256100
  heat_capacity:     288.8885711
  energy:            161.1722621

- temperature:       530.0000000
  free_energy:      -115.9529247
  entropy:           528.3320244
  heat_capacity:     289.2652300
  energy:            164.0630483

- temperature:       540.0000000
  free_energy:      -121.2633753
  entropy:           533.7423627
  heat_capacity:     289.6220238
  energy:            166.9575005

- temperature:       550.0000000
  free_energy:      -126.6274623
  entropy:           539.0597988
  heat_capacity:     289.9603106
  energy:            169.8554271

- temperature:       560.0000000
  free_energy:      -132.0442718
  entropy:           544.2873588
  heat_capacity:     290.2813357
  energy:            172.7566492

- temperature:       570.0000000
  free_energy:      -137.5129195
  entropy:           549.4279291
  heat_capacity:     290.5862424
  energy:            175.6610001

- temperature:       580.0000000
  free_energy:      -143.0325496
  entropy:           554.4842645
  heat_capacity:     290.8760819
  energy:            178.5683238

- temperature:       590.0000000
  free_energy:      -148.6023328
  entropy:           559.4589958
  heat_capacity:     291.1518218
  energy:            181.4784747

- temperature:       600.0000000
  free_energy:      -154.2214659
  entropy:           564.3546368
  heat_capacity:     291.4143541
  energy:            184.3913162

- temperature:       610.0000000
  free_energy:      -159.8891699
  entropy:           569.1735909
  heat_capacity:     291.6645018
  energy:            187.3067205

- temperature:       620.0000000
  free_energy:      -165.6046897
  entropy:           573.9181569
  heat_capacity:     291.9030256
  energy:            190.2245675

- temperature:       630.0000000
  free_energy:      -171.3672925
  entropy:           578.5905350
  heat_capacity:     292.1306289
  energy:            193.1447446

- temperature:       640.0000000
  free_energy:      -177.1762668
  entropy:           583.1928324
  heat_capacity:     292.3479632
  energy:            196.0671459

- temperature:       650.0000000
  free_energy:      -183.0309222
  entropy:           587.7270676
  heat_capacity:     292.5556326
  energy:            198.9916717

- temperature:       660.0000000
  free_energy:      -188.9305878
  entropy:           592.1951757
  heat_capacity:     292.7541976
  energy:            201.9182282

- temperature:       670.0000000
  free_energy:      -194.8746115
  entropy:           596.5990128
  heat_capacity:     292.9441791
  energy:            204.8467270

- temperature:       680.0000000
  free_energy:      -200.8623597
  entropy:           600.9403596
  heat_capacity:     293.1260614
  energy:            207.7770848

- temperature:       690.0000000
  free_energy:      -206.8932161
  entropy:           605.2209259
  heat_capacity:     293.3002955
  energy:            210.7092228

- temperature:       700.0000000
  free_energy:      -212.9665811
  entropy:           609.4423539
  heat_capacity:     293.4673014
  energy:            213.6430666

- temperature:       710.0000000
  free_energy:      -219.0818713
  entropy:           613.6062216
  heat_capacity:     293.6274711
  energy:            216.5785460

- temperature:       720.0000000
  free_energy:      -225.2385188
  entropy:           617.7140461
  heat_capacity:     293.7811703
  energy:            219.5155945

- temperature:       730.0000000
  free_energy:      -231.4359703
  entropy:           621.7672867
  heat_capacity:     293.9287411
  energy:            222.4541490

- temperature:       740.0000000
  free_energy:      -237.6736872
  entropy:           625.7673475
  heat_capacity:     294.0705030
  energy:            225.3941499

- temperature:       750.0000000
  free_energy:      -243.9511445
  entropy:           629.7155803
  heat_capacity:     294.2067553
  energy:            228.3355407

- temperature:       760.0000000
  free_energy:      -250.2678304
  entropy:           633.6132869
  heat_capacity:     294.3377784
  energy:            231.2782676

- temperature:       770.0000000
  free_energy:      -256.6232460
  entropy:           637.4617217
  heat_capacity:     294.4638349
  energy:            234.2222797

- temperature:       780.0000000
  free_energy:      -263.0169047
  entropy:           641.2620939
  heat_capacity:     294.5851716
  energy:            237.1675286

- temperature:       790.0000000
  free_energy:      -269.4483316
  entropy:           645.0155693
  heat_capacity:     294.7020199
  energy:            240.1139682

- temperature:       800.0000000
  free_energy:      -275.9170635
  entropy:           648.7232727
  heat_capacity:     294.8145976
  energy:            243.0615547

- temperature:       810.0000000
  free_energy:      -282.4226481
  entropy:           652.3862897
  heat_capacity:     294.9231091
  energy:            246.0102466

- temperature:       820.0000000
  free_energy:      -288.9646438
  entropy:           656.0056681
  heat_capacity:     295.0277472
  energy:            248.9600040

- temperature:       830.0000000
  free_energy:      -295.5426194
  entropy:           659.5824200
  heat_capacity:     295.1286930
  energy:            251.9107892

- temperature:       840.0000000
  free_energy:      -302.1561534
  entropy:           663.1175232
  heat_capacity:     295.2261177
  energy:            254.8625661

- temperature:       850.0000000
  free_energy:      -308.8048341
  entropy:           666.6119229
  heat_capacity:     295.3201823
  energy:            257.8153004

- temperature:       860.0000000
  free_energy:      -315.4882592
  entropy:           670.0665329
  heat_capacity:     295.4110390
  energy:            260.7689591

- temperature:       870.0000000
  free_energy:      -322.2060351
  entropy:           673.4822368
  heat_capacity:     295.4988314
  energy:            263.7235109

- temperature:       880.0000000
  free_energy:      -328.9577771
  entropy:           676.8598898
  heat_capacity:     295.5836953
  energy:            266.6789259

- temperature:       890.0000000
  free_energy:      -335.7431088
  entropy:           680.2003195
  heat_capacity:     295.6657588
  energy:            269.6351755

- temperature:       900.0000000
  free_energy:      -342.5616621
  entropy:           683.5043270
  heat_capacity:     295.7451435
  energy:            272.5922322

- temperature:       910.0000000
  free_energy:      -349.4130766
  entropy:           686.7726883
  heat_capacity:     295.8219642
  energy:            275.5500698

- temperature:       920.0000000
  free_energy:      -356.2969996
  entropy:           690.0061553
  heat_capacity:     295.8963297
  energy:            278.5086633

- temperature:       930.0000000
  free_energy:      -363.2130858
  entropy:           693.2054563
  heat_capacity:     295.9683433
  energy:            281.4679886

- temperature:       940.0000000
  free_energy:      -370.1609971
  entropy:           696.3712977
  heat_capacity:     296.0381027
  energy:            284.4280226

- temperature:       950.0000000
  free_energy:      -377.1404025
  entropy:           699.5043641
  heat_capacity:     296.1057007
  energy:            287.3887434

- temperature:       960.0000000
  free_energy:      -384.1509774
  entropy:           702.6053199
  heat_capacity:     296.1712254
  energy:            290.3501297

- temperature:       970.0000000
  free_energy:      -391.1924040
  entropy:           705.6748096
  heat_capacity:     296.2347604
  energy:            293.3121613

- temperature:       980.0000000
  free_energy:      -398.2643708
  entropy:           708.7134586
  heat_capacity:     296.2963852
  energy:            296.2748186

- temperature:       990.0000000
  free_energy:      -405.3665724
  entropy:           711.7218740
  heat_capacity:     296.3561754
  energy:            299.2380829

- temperature:      1000.0000000
  free_energy:      -412.4987095
  entropy:           714.7006457
  heat_capacity:     296.4142029
  energy:            302.2019362
