# Thermal properties / unit cell (natom)

unit:
  temperature:   K
  free_energy:   kJ/mol
  entropy:       J/K/mol
  heat_capacity: J/K/mol

natom: 11   
cutoff_frequency: 0.00000
num_modes: 515625
num_integrated_modes: 515623

zero_point_energy:      44.2448132

thermal_properties:
- temperature:         0.0000000
  free_energy:        44.2448132
  entropy:             0.0000000
  heat_capacity:       0.0000000
  energy:             44.2448132

- temperature:        10.0000000
  free_energy:        44.2431005
  entropy:             0.6782640
  heat_capacity:       2.1204810
  energy:             44.2498831

- temperature:        20.0000000
  free_energy:        44.2166625
  entropy:             5.5332869
  heat_capacity:      15.0208873
  energy:             44.3273282

- temperature:        30.0000000
  free_energy:        44.1175386
  entropy:            14.7944938
  heat_capacity:      31.6744477
  energy:             44.5613734

- temperature:        40.0000000
  free_energy:        43.9143334
  entropy:            26.0447228
  heat_capacity:      47.0675778
  energy:             44.9561223

- temperature:        50.0000000
  free_energy:        43.5939581
  entropy:            38.1243754
  heat_capacity:      61.6867847
  energy:             45.5001769

- temperature:        60.0000000
  free_energy:        43.1503692
  entropy:            50.6538942
  heat_capacity:      76.2107789
  energy:             46.1896028

- temperature:        70.0000000
  free_energy:        42.5798369
  entropy:            63.4976693
  heat_capacity:      90.8074257
  energy:             47.0246737

- temperature:        80.0000000
  free_energy:        41.8796468
  entropy:            76.5719412
  heat_capacity:     105.2953909
  energy:             48.0054021

- temperature:        90.0000000
  free_energy:        41.0479116
  entropy:            89.7919322
  heat_capacity:     119.3656660
  energy:             49.1291855

- temperature:       100.0000000
  free_energy:        40.0836237
  entropy:           103.0673509
  heat_capacity:     132.7320765
  energy:             50.3903588

- temperature:       110.0000000
  free_energy:        38.9866739
  entropy:           116.3102961
  heat_capacity:     145.1955873
  energy:             51.7808065

- temperature:       120.0000000
  free_energy:        37.7577880
  entropy:           129.4426374
  heat_capacity:     156.6518725
  energy:             53.2909045

- temperature:       130.0000000
  free_energy:        36.3984065
  entropy:           142.3998701
  heat_capacity:     167.0736267
  energy:             54.9103896

- temperature:       140.0000000
  free_energy:        34.9105427
  entropy:           155.1319244
  heat_capacity:     176.4869676
  energy:             56.6290121

- temperature:       150.0000000
  free_energy:        33.2966421
  entropy:           167.6021283
  heat_capacity:     184.9505724
  energy:             58.4369614

- temperature:       160.0000000
  free_energy:        31.5594579
  entropy:           179.7853205
  heat_capacity:     192.5400542
  energy:             60.3251091

- temperature:       170.0000000
  free_energy:        29.7019458
  entropy:           191.6657424
  heat_capacity:     199.3373726
  energy:             62.2851220

- temperature:       180.0000000
  free_energy:        27.7271807
  entropy:           203.2350448
  heat_capacity:     205.4241979
  energy:             64.3094888

- temperature:       190.0000000
  free_energy:        25.6382913
  entropy:           214.4905553
  heat_capacity:     210.8780803
  energy:             66.3914968

- temperature:       200.0000000
  free_energy:        23.4384107
  entropy:           225.4338444
  heat_capacity:     215.7704854
  energy:             68.5251796

- temperature:       210.0000000
  free_energy:        21.1306399
  entropy:           236.0695770
  heat_capacity:     220.1660062
  energy:             70.7052510

- temperature:       220.0000000
  free_energy:        18.7180216
  entropy:           246.4046120
  heat_capacity:     224.1222827
  energy:             72.9270363

- temperature:       230.0000000
  free_energy:        16.2035222
  entropy:           256.4473088
  heat_capacity:     227.6903185
  energy:             75.1864032

- temperature:       240.0000000
  free_energy:        13.5900189
  entropy:           266.2069995
  heat_capacity:     230.9150004
  energy:             77.4796987

- temperature:       250.0000000
  free_energy:        10.8802926
  entropy:           275.6935918
  heat_capacity:     233.8356997
  energy:             79.8036905

- temperature:       260.0000000
  free_energy:         8.0770234
  entropy:           284.9172748
  heat_capacity:     236.4868869
  energy:             82.1555148

- temperature:       270.0000000
  free_energy:         5.1827892
  entropy:           293.8883021
  heat_capacity:     238.8987186
  energy:             84.5326308

- temperature:       280.0000000
  free_energy:         2.2000657
  entropy:           302.6168358
  heat_capacity:     241.0975789
  energy:             86.9327797

- temperature:       290.0000000
  free_energy:        -0.8687724
  entropy:           311.1128351
  heat_capacity:     243.1065659
  energy:             89.3539498

- temperature:       300.0000000
  free_energy:        -4.0214482
  entropy:           319.3859802
  heat_capacity:     244.9459225
  energy:             91.7943458

- temperature:       310.0000000
  free_energy:        -7.2557804
  entropy:           327.4456214
  heat_capacity:     246.6334136
  energy:             94.2523623

- temperature:       320.0000000
  free_energy:       -10.5696790
  entropy:           335.3007473
  heat_capacity:     248.1846551
  energy:             96.7265601

- temperature:       330.0000000
  free_energy:       -13.9611423
  entropy:           342.9599683
  heat_capacity:     249.6133978
  energy:             99.2156472

- temperature:       340.0000000
  free_energy:       -17.4282528
  entropy:           350.4315093
  heat_capacity:     250.9317730
  energy:            101.7184604

- temperature:       350.0000000
  free_energy:       -20.9691731
  entropy:           357.7232107
  heat_capacity:     252.1505046
  energy:            104.2339507

- temperature:       360.0000000
  free_energy:       -24.5821425
  entropy:           364.8425349
  heat_capacity:     253.2790911
  energy:            106.7611701

- temperature:       370.0000000
  free_energy:       -28.2654729
  entropy:           371.7965759
  heat_capacity:     254.3259628
  energy:            109.2992602

- temperature:       380.0000000
  free_energy:       -32.0175455
  entropy:           378.5920726
  heat_capacity:     255.2986174
  energy:            111.8474421

- temperature:       390.0000000
  free_energy:       -35.8368072
  entropy:           385.2354224
  heat_capacity:     256.2037364
  energy:            114.4050075

- temperature:       400.0000000
  free_energy:       -39.7217671
  entropy:           391.7326968
  heat_capacity:     257.0472861
  energy:            116.9713116

- temperature:       410.0000000
  free_energy:       -43.6709935
  entropy:           398.0896569
  heat_capacity:     257.8346048
  energy:            119.5457659

- temperature:       420.0000000
  free_energy:       -47.6831108
  entropy:           404.3117692
  heat_capacity:     258.5704780
  energy:            122.1278323

- temperature:       430.0000000
  free_energy:       -51.7567967
  entropy:           410.4042209
  heat_capacity:     259.2592043
  energy:            124.7170183

- temperature:       440.0000000
  free_energy:       -55.8907794
  entropy:           416.3719354
  heat_capacity:     259.9046517
  energy:            127.3128721

- temperature:       450.0000000
  free_energy:       -60.0838352
  entropy:           422.2195866
  heat_capacity:     260.5103074
  energy:            129.9149787

- temperature:       460.0000000
  free_energy:       -64.3347858
  entropy:           427.9516130
  heat_capacity:     261.0793212
  energy:            132.5229562

- temperature:       470.0000000
  free_energy:       -68.6424961
  entropy:           433.5722313
  heat_capacity:     261.6145424
  energy:            135.1364526

- temperature:       480.0000000
  free_energy:       -73.0058724
  entropy:           439.0854489
  heat_capacity:     262.1185537
  energy:            137.7551430

- temperature:       490.0000000
  free_energy:       -77.4238598
  entropy:           444.4950761
  heat_capacity:     262.5936996
  energy:            140.3787274

- temperature:       500.0000000
  free_energy:       -81.8954407
  entropy:           449.8047373
  heat_capacity:     263.0421118
  energy:            143.0069279

- temperature:       510.0000000
  free_energy:       -86.4196329
  entropy:           455.0178822
  heat_capacity:     263.4657318
  energy:            145.6394870

- temperature:       520.0000000
  free_energy:       -90.9954876
  entropy:           460.1377951
  heat_capacity:     263.8663303
  energy:            148.2761658

- temperature:       530.0000000
  free_energy:       -95.6220885
  entropy:           465.1676052
  heat_capacity:     264.2455251
  energy:            150.9167423

- temperature:       540.0000000
  free_energy:      -100.2985493
  entropy:           470.1102950
  heat_capacity:     264.6047958
  energy:            153.5610099

- temperature:       550.0000000
  free_energy:      -105.0240134
  entropy:           474.9687087
  heat_capacity:     264.9454984
  energy:            156.2087764

- temperature:       560.0000000
  free_energy:      -109.7976517
  entropy:           479.7455604
  heat_capacity:     265.2688763
  energy:            158.8598622

- temperature:       570.0000000
  free_energy:      -114.6186614
  entropy:           484.4434410
  heat_capacity:     265.5760721
  energy:            161.5141000

- temperature:       580.0000000
  free_energy:      -119.4862655
  entropy:           489.0648253
  heat_capacity:     265.8681367
  energy:            164.1713332

- temperature:       590.0000000
  free_energy:      -124.3997108
  entropy:           493.6120785
  heat_capacity:     266.1460378
  energy:            166.8314155

- temperature:       600.0000000
  free_energy:      -129.3582675
  entropy:           498.0874621
  heat_capacity:     266.4106679
  energy:            169.4942097

- temperature:       610.0000000
  free_energy:      -134.3612277
  entropy:           502.4931395
  heat_capacity:     266.6628509
  energy:            172.1595874

- temperature:       620.0000000
  free_energy:      -139.4079049
  entropy:           506.8311817
  heat_capacity:     266.9033484
  energy:            174.8274278

- temperature:       630.0000000
  free_energy:      -144.4976325
  entropy:           511.1035719
  heat_capacity:     267.1328650
  energy:            177.4976177

- temperature:       640.0000000
  free_energy:      -149.6297638
  entropy:           515.3122101
  heat_capacity:     267.3520538
  energy:            180.1700507

- temperature:       650.0000000
  free_energy:      -154.8036703
  entropy:           519.4589180
  heat_capacity:     267.5615200
  energy:            182.8446264

- temperature:       660.0000000
  free_energy:      -160.0187416
  entropy:           523.5454426
  heat_capacity:     267.7618260
  energy:            185.5212505

- temperature:       670.0000000
  free_energy:      -165.2743842
  entropy:           527.5734601
  heat_capacity:     267.9534939
  energy:            188.1998341

- temperature:       680.0000000
  free_energy:      -170.5700211
  entropy:           531.5445800
  heat_capacity:     268.1370099
  energy:            190.8802933

- temperature:       690.0000000
  free_energy:      -175.9050913
  entropy:           535.4603477
  heat_capacity:     268.3128263
  energy:            193.5625487

- temperature:       700.0000000
  free_energy:      -181.2790485
  entropy:           539.3222486
  heat_capacity:     268.4813650
  energy:            196.2465255

- temperature:       710.0000000
  free_energy:      -186.6913614
  entropy:           543.1317105
  heat_capacity:     268.6430195
  energy:            198.9321530

- temperature:       720.0000000
  free_energy:      -192.1415125
  entropy:           546.8901065
  heat_capacity:     268.7981572
  energy:            201.6193642

- temperature:       730.0000000
  free_energy:      -197.6289978
  entropy:           550.5987580
  heat_capacity:     268.9471215
  energy:            204.3080956

- temperature:       740.0000000
  free_energy:      -203.1533261
  entropy:           554.2589368
  heat_capacity:     269.0902336
  energy:            206.9982871

- temperature:       750.0000000
  free_energy:      -208.7140190
  entropy:           557.8718677
  heat_capacity:     269.2277942
  energy:            209.6898818

- temperature:       760.0000000
  free_energy:      -214.3106099
  entropy:           561.4387307
  heat_capacity:     269.3600852
  energy:            212.3828254

- temperature:       770.0000000
  free_energy:      -219.9426439
  entropy:           564.9606632
  heat_capacity:     269.4873707
  energy:            215.0770668

- temperature:       780.0000000
  free_energy:      -225.6096771
  entropy:           568.4387616
  heat_capacity:     269.6098988
  energy:            217.7725570

- temperature:       790.0000000
  free_energy:      -231.3112765
  entropy:           571.8740838
  heat_capacity:     269.7279022
  energy:            220.4692497

- temperature:       800.0000000
  free_energy:      -237.0470196
  entropy:           575.2676503
  heat_capacity:     269.8415999
  energy:            223.1671007

- temperature:       810.0000000
  free_energy:      -242.8164936
  entropy:           578.6204465
  heat_capacity:     269.9511978
  energy:            225.8660680

- temperature:       820.0000000
  free_energy:      -248.6192958
  entropy:           581.9334236
  heat_capacity:     270.0568897
  energy:            228.5661116

- temperature:       830.0000000
  free_energy:      -254.4550324
  entropy:           585.2075010
  heat_capacity:     270.1588580
  energy:            231.2671934

- temperature:       840.0000000
  free_energy:      -260.3233191
  entropy:           588.4435667
  heat_capacity:     270.2572748
  energy:            233.9692769

- temperature:       850.0000000
  free_energy:      -266.2237799
  entropy:           591.6424794
  heat_capacity:     270.3523024
  energy:            236.6723276

- temperature:       860.0000000
  free_energy:      -272.1560476
  entropy:           594.8050695
  heat_capacity:     270.4440939
  energy:            239.3763122

- temperature:       870.0000000
  free_energy:      -278.1197629
  entropy:           597.9321403
  heat_capacity:     270.5327940
  energy:            242.0811992

- temperature:       880.0000000
  free_energy:      -284.1145746
  entropy:           601.0244691
  heat_capacity:     270.6185393
  energy:            244.7869582

- temperature:       890.0000000
  free_energy:      -290.1401390
  entropy:           604.0828085
  heat_capacity:     270.7014591
  energy:            247.4935605

- temperature:       900.0000000
  free_energy:      -296.1961199
  entropy:           607.1078870
  heat_capacity:     270.7816756
  energy:            250.2009784

- temperature:       910.0000000
  free_energy:      -302.2821882
  entropy:           610.1004106
  heat_capacity:     270.8593046
  energy:            252.9091854

- temperature:       920.0000000
  free_energy:      -308.3980219
  entropy:           613.0610632
  heat_capacity:     270.9344558
  energy:            255.6181562

- temperature:       930.0000000
  free_energy:      -314.5433055
  entropy:           615.9905076
  heat_capacity:     271.0072330
  energy:            258.3278666

- temperature:       940.0000000
  free_energy:      -320.7177301
  entropy:           618.8893867
  heat_capacity:     271.0777350
  energy:            261.0382933

- temperature:       950.0000000
  free_energy:      -326.9209934
  entropy:           621.7583236
  heat_capacity:     271.1460551
  energy:            263.7494141

- temperature:       960.0000000
  free_energy:      -333.1527988
  entropy:           624.5979232
  heat_capacity:     271.2122822
  energy:            266.4612074

- temperature:       970.0000000
  free_energy:      -339.4128560
  entropy:           627.4087722
  heat_capacity:     271.2765005
  energy:            269.1736530

- temperature:       980.0000000
  free_energy:      -345.7008803
  entropy:           630.1914402
  heat_capacity:     271.3387903
  energy:            271.8867310

- temperature:       990.0000000
  free_energy:      -352.0165927
  entropy:           632.9464802
  heat_capacity:     271.3992277
  energy:            274.6004226

- temperature:      1000.0000000
  free_energy:      -358.3597196
  entropy:           635.6744293
  heat_capacity:     271.4578851
  energy:            277.3147097
