18
Lattice="3.243615957252349 -0.0022387320284588297 -0.0005233986888930036 -1.6177413421704878 8.50370855566699 -0.054178680789540724 0.0023620487334739385 0.02386247737815857 13.328188601141475" Properties=species:S:1:pos:R:3:forces:R:3 structure_index=0 total_energy=-55.36896896362305 stress="-0.014592476189136505 -0.0002055617078440264 -2.6100031391251832e-05 -0.00020552679779939353 -0.012791388668119907 -0.0007038931944407523 -2.6155033992836252e-05 -0.00070371781475842 -0.011087649501860142" pbc="T T T"
Li       1.02829260       2.23560797       8.04439431      -0.00037583       0.03625193       0.03397834
Li      -0.59220161       7.03280689       6.04467047      -0.00006024       0.02249940      -0.03759391
Li       1.02855015       2.65639446       3.42077409      -0.00056117      -0.02323950      -0.00815142
Li      -0.59277130       8.26659378       3.15352166       0.00043634      -0.02272516       0.01329783
Li       1.02922642       2.76232376      12.51698422       0.00006314       0.00900564       0.00472162
Li      -0.59085130       8.38936081      12.57403059      -0.00019462      -0.00444775      -0.00034639
Li      -0.59325358       4.12376058      10.18858941      -0.00015586       0.00570288      -0.01600583
Li      -0.59188439       7.28848525       9.97353455       0.00042646      -0.02319302       0.00561546
Ga       1.02735468       7.04403610       1.17175455       0.00120966      -0.00493238      -0.00558396
Ga       1.03055317       8.38539120       7.94760182       0.00014535       0.01100056       0.00565432
Ga       2.64806996       1.32382775       1.28199031       0.00018169      -0.01507102      -0.00489133
Sn      -0.59348643       3.88924555       5.91434367       0.00053390       0.00737110      -0.00028331
Sn       1.02872532       5.49554462       8.17654019       0.00009855       0.01886023      -0.02169168
Sn      -0.59206051       4.34744423       1.28716962      -0.00108351      -0.01213355       0.00557217
Sn       1.02870362       5.71799880       3.79043615      -0.00046412      -0.01282944      -0.01358892
Sn       2.64869615       0.92325851       5.37805292      -0.00012220       0.01175787       0.01749427
Sn       1.02946273       5.78065768      11.97234978      -0.00020114      -0.00603795       0.01217255
Sn       2.64949703       1.26818253      10.50010798       0.00012359       0.00216018       0.00963014
18
Lattice="4.202160532043018 0.0034547601864558554 -0.0011263367551623492 -2.1064535536444366 6.214288409064938 -0.04548722435193495 0.0038615868797305538 -0.019898102754463957 12.678619122504326" Properties=species:S:1:pos:R:3:forces:R:3 structure_index=1 total_energy=-52.08652877807617 stress="0.0026938850060105324 -4.751290362037253e-06 3.3477064675935253e-07 -4.828266810363857e-06 -0.018346484750509262 0.0016383306356146932 3.4423254646753776e-07 0.0016387433279305696 -0.0008265041396953166" pbc="T T T"
Li       1.08952683       2.99045143       6.83515028      -0.00030321      -0.00385475       0.01828490
Li       1.09178616       0.88421459       8.89236173       0.00104978      -0.00286125       0.02345941
Li       1.08716026       5.03724776       4.62555431       0.00041508      -0.00215048       0.00347642
Li       1.08826219       3.15301647       2.53172844       0.00153956      -0.02533334      -0.04151737
Li       1.09078495       2.91982215      11.00355467       0.00100431       0.00727868       0.01594214
Li       3.19201440       0.86942681       2.63220262      -0.00071203      -0.02206117      -0.01713521
Li       1.08863062       4.81169974       8.88128270      -0.00037298       0.01513750       0.00505357
Li       3.19261679       0.87663774       6.76885344      -0.00075086      -0.00690163      -0.03212342
Li       1.08692071       4.99899450       0.45089748      -0.00031089       0.00364794      -0.00678723
Ga      -1.01340388       4.95385465       2.55194161      -0.00150946       0.02942513       0.00085922
Ga      -1.01241420       3.11808667       0.48566842      -0.00147121      -0.03343723      -0.01464847
Ga       3.19130628       2.86420438       8.94941456       0.00004538       0.02154828       0.01997201
Ga      -1.01172849       3.06961979       4.58591481      -0.00120713       0.01066564      -0.00251949
Ga      -1.01142761       4.77843906      10.96274690       0.00011544       0.00457348       0.01360924
Sn       3.19468227       0.68269158      10.92745351      -0.00201417       0.03567364      -0.00768111
Sn       1.09064182       1.08834915       4.63858077       0.00137845      -0.00589671       0.00902166
Sn      -1.01366536       4.96371783       6.81192546       0.00160115      -0.00813126      -0.00558727
Sn       1.08996855       0.97902039       0.54142804       0.00150278      -0.01732242       0.01832090
8
Lattice="5.146871598544003 -0.006970335886757303 -2.897912139637174 -1.626363678900439 4.873699863132719 -2.9065056904688498 -0.017234852622052103 -0.008923904733990106 6.008124266834193" Properties=species:S:1:pos:R:3:forces:R:3 structure_index=2 total_energy=-23.272668838500977 stress="-0.010548966936767101 -0.01938466727733612 -0.015836527571082115 -0.019384384155273438 -0.03736519813537598 -0.011834492906928062 -0.01583639718592167 -0.011834393255412579 0.03678649291396141" pbc="T T T"
Li      -0.20025833       1.36686269      -0.06275757      -0.00158933      -0.00491338      -0.00419561
Li       1.55910844       3.80025025      -2.97084115      -0.00318590      -0.00365438      -0.00109699
Ga       2.35771733       1.34774103       1.49664983       0.00120016       0.00261620       0.00662811
Ga      -0.20103828       1.35286707       2.93915843       0.00450451       0.00220030       0.00242703
Ga       1.53891821       3.80247785       0.03690257       0.00098508       0.00313287       0.00013040
Ga      -1.02600584       3.78265114      -1.53959809       0.00573464       0.01250297       0.00831676
Ga      -1.01864313       3.80699941       1.47674554       0.00290598       0.00334200       0.00151078
Sn       2.38058178       1.37751115      -1.50048053      -0.01055513      -0.01522660      -0.01372050
4
Lattice="4.354095880653887 -0.00017045743957282334 0.0004303904301693705 0.00021329054259784934 4.54618402540871 0.00010520156175534246 -0.00036806627649474546 -0.00013139556012653345 4.544702481004341" Properties=species:S:1:pos:R:3:forces:R:3 structure_index=3 total_energy=-13.074140548706055 stress="-0.0002674456627573818 0.00014558355906046927 0.0002845119161065668 0.0001455948658986017 0.025302035734057426 -0.00011411817104090005 0.0002843820257112384 -0.0001139967207564041 0.02025635726749897" pbc="T T T"
Li       1.17591106       0.12012179       3.72567614       0.00080155       0.00125697       0.00005225
Ga       1.17621602       2.39350300       1.45349359       0.00129526      -0.00096577       0.00011356
Sn       3.35310003       2.39439687       3.72620048      -0.00037393      -0.00334457      -0.00027347
Sn       3.35411539       0.11966477       1.45365706      -0.00172288       0.00305337       0.00010767
6
Lattice="4.143683128739504 -0.0036021079204804174 -1.3597611822504931 0.003286078091793092 4.297588845877048 -0.0004850780566170798 -0.14140188933917566 0.0007129493060952953 6.556325911237503" Properties=species:S:1:pos:R:3:forces:R:3 structure_index=4 total_energy=-18.118396759033203 stress="0.034506894648075104 -0.0004407503001857549 -0.010830341838300228 -0.0004407227970659733 0.020571744069457054 0.0017833528108894825 -0.010830314829945564 0.0017832922749221325 0.0005923559074290097" pbc="T T T"
Li       2.60757582       2.12040861       0.20915276      -0.00093068       0.00072028      -0.00135924
Li       1.85559525       4.26902955       4.89778092       0.00580631       0.00200246       0.02859762
Li       3.22169165       4.27123052       2.07611624      -0.00798892      -0.00299095      -0.03077143
Ga       0.53618923       4.27142910       0.88700631       0.00178008      -0.00021039       0.00235716
Sn       3.90156064       2.11780571       4.15110860      -0.00797016       0.00486264      -0.04042110
Sn       1.17099274       2.12457385       2.82088265       0.00930336      -0.00438405       0.04159699
6
Lattice="4.529533811076064 0.007200866670806401 -0.001343798894592257 -2.265953080571256 3.92341561629153 -0.000881378447500878 0.00471813028289139 0.004333168918741487 7.331204950221167" Properties=species:S:1:pos:R:3:forces:R:3 structure_index=5 total_energy=-18.39426612854004 stress="-0.04102444276213646 -1.6772326489444822e-05 0.0017985630547627807 -1.6747939298511483e-05 -0.04017150402069092 0.0013542291708290577 0.0017984899459406734 0.00135423569008708 0.014017792418599129" pbc="T T T"
Li       0.14073047       3.06499684       0.85831917      -0.00134053      -0.00045263      -0.00073388
Li       0.13492975       3.07240847       4.52234125      -0.00110250       0.00071186       0.00131399
Ga       0.13821101       0.44941978       2.16346673       0.00166514      -0.00055748       0.04592087
Ga       0.14166432       0.45192134       6.87298967       0.00238930       0.00041855      -0.04639473
Sn       2.40448467       1.76552296       6.02814127      -0.00182676      -0.00036570       0.02162393
Sn       2.40146885       1.76365234       3.00619672       0.00021535       0.00024540      -0.02173015
9
Lattice="3.83508064337523 0.0008401268833969429 1.2448906568784641 1.9029676813465983 6.02478274409279 0.6633231312640439 0.05720329707529294 -0.09105470159132231 6.353437478862109" Properties=species:S:1:pos:R:3:forces:R:3 structure_index=6 total_energy=-23.92087173461914 stress="0.04945960268378258 -0.0056545971892774105 0.008771393448114395 -0.0056546470150351524 0.019423888996243477 0.01757361739873886 0.00877129565924406 0.017573267221450806 0.025002963840961456" pbc="T T T"
Li       3.19429041       2.78069951       3.79201352       0.00814677       0.02599796      -0.02278835
Li       4.45272824       2.66755634       6.44581419      -0.00301065      -0.00794461       0.00866720
Li       1.25694818       0.64427468       3.23339236      -0.00206105      -0.01095053       0.00601692
Li       2.54723337       4.73806359       5.78475627      -0.00015198       0.00395647       0.00126306
Li       3.81329794       0.72971742       1.88825317       0.00183486      -0.00013809      -0.00719113
Ga       1.88330453       2.74930162       1.30110994       0.00446910       0.00731704      -0.01147883
Ga       3.79288132       4.76227448       1.94822187      -0.00221406      -0.00424435       0.00580407
Ga       2.55471607       0.66232980       5.76447110      -0.00815320      -0.03036566       0.02610900
Ga       5.08862764       4.74253475       4.48676018       0.00114022       0.01637175      -0.00640189
3
Lattice="3.96364038297991 0.0007486926194831758 2.2818098930970776 1.3226874469300538 3.7363166224777626 2.278726348937253 0.001154837035495135 0.0009455411853184349 4.570636448399388" Properties=species:S:1:pos:R:3:forces:R:3 structure_index=7 total_energy=-9.259526252746582 stress="0.0601896271109581 -0.010330172255635262 -0.0422264039516449 -0.010329991579055786 0.06538012623786926 -0.036107782274484634 -0.04222628101706505 -0.03610783815383911 0.004392402712255716" pbc="T T T"
Li       4.48993019       2.10412008       5.29704650       0.00080971       0.00085571       0.00304195
Ga       1.84773391       0.23647725       5.30424879      -0.00790482      -0.00471877      -0.01376133
Sn       3.16712444       1.16927642       3.01404091       0.00709511       0.00386305       0.01071937
12
Lattice="3.930604087863914 -0.000694481510782602 1.1186584984624675 1.2195115726906598 6.84811884733407 3.173741061137202 -0.05554092663956358 0.03982644273174621 7.646932631896968" Properties=species:S:1:pos:R:3:forces:R:3 structure_index=8 total_energy=-33.908409118652344 stress="-0.002780338516458869 0.0016230832552537322 -0.010625660419464111 0.0016231238842010498 0.010876676999032497 -0.027431683614850044 -0.010625509545207024 -0.027431566268205643 -0.012687495909631252" pbc="T T T"
Li       1.06275795       0.38365187       5.47586245      -0.00037219       0.02536134       0.00023844
Li       4.12932744       2.65537314       9.62159719       0.00964988       0.02432443      -0.03057928
Li       1.72757977       3.93502773       3.14447002      -0.00669296      -0.00883688       0.02197891
Li       0.95406467       3.25564538       5.85508860      -0.00579451       0.01737976       0.02182367
Li       4.76309978       6.03977839       7.39838377      -0.00219253      -0.04105426       0.01130460
Ga       3.24246822       4.88519964       5.28139045       0.00781259      -0.00594029      -0.02619071
Ga       2.62086128       1.56617353       7.46077988       0.00471650      -0.02365249      -0.01278324
Ga       3.35193595       2.17851553       4.89788849      -0.00008656       0.00316690       0.00048264
Ga       1.61430679       6.60571420       3.53912584      -0.00153429       0.00220387       0.00513696
Ga       3.99621521       5.47123948      10.09566691      -0.00882668       0.01699061       0.02052837
Ga       2.46152336       4.39831610       8.02307585      -0.00247024       0.00360342       0.00454543
Sn       1.85054458       1.02425238       2.70951505       0.00579103      -0.01354643      -0.01648579
4
Lattice="4.280978739716807 0.0007186364049215877 -0.0006901935823183963 -0.0021815715407441285 4.280720869537492 -0.002810280876984098 0.0004121478633502763 0.0016936826472614807 4.357327689245824" Properties=species:S:1:pos:R:3:forces:R:3 structure_index=9 total_energy=-12.158649444580078 stress="0.05454249680042267 -0.0043279873207211494 -0.0014099807012826204 -0.004327863920480013 0.05266355723142624 -0.005719880107790232 -0.001409893506206572 -0.005719756707549095 0.05804752558469772" pbc="T T T"
Li       0.69723952       0.64995008       1.83181070      -0.00036318       0.00032488       0.00096029
Ga       0.69634673       2.79164659       4.00985958      -0.00044121      -0.00014529      -0.00032991
Ga       2.83777027       0.65181284       4.01135441       0.00023541      -0.00098323      -0.00146787
Sn       2.83643622       2.79075363       1.83091459       0.00056899       0.00080365       0.00083748
4
Lattice="4.287288953967192 0.00034760745849044417 -0.0025898753549604965 -0.00044263273805658816 4.340942655255114 -0.002485230729157857 0.0012403348742474945 0.0019623021985973655 4.287873089011737" Properties=species:S:1:pos:R:3:forces:R:3 structure_index=10 total_energy=-12.158551216125488 stress="0.03848443925380707 -0.00044548881123773754 -0.0038972641341388226 -0.000445396697614342 -0.08621323108673096 -0.002418534131720662 -0.003897314192727208 -0.0024185823276638985 0.04286681488156319" pbc="T T T"
Li       3.01453096       0.95106158       2.20786082       0.00038341       0.00030402       0.00025848
Ga       3.01373582       3.12062033       0.06300457       0.00037659       0.00172816      -0.00036014
Ga       0.87093105       3.12239381       2.20799494      -0.00033105      -0.00067680       0.00011635
Sn       0.87043749       0.95099501       0.06525953      -0.00042897      -0.00135538      -0.00001468
5
Lattice="3.8361036897420493 -0.0010017233372284185 -1.2781759160941737 -0.4252108017914643 3.8102791358166126 -1.279140227976343 0.12474434370561924 0.14673428515590844 6.775153172406476" Properties=species:S:1:pos:R:3:forces:R:3 structure_index=11 total_energy=-14.727399826049805 stress="-0.027880273759365082 -0.005793485324829817 -0.014624662697315216 -0.005793651565909386 -0.027108807116746902 -0.0167342908680439 -0.01462480891495943 -0.016734100878238678 -0.0650034248828888" pbc="T T T"
Li       0.70132926       2.50534044       3.56781983      -0.00045462      -0.00088772       0.00286703
Ga       1.45017733       1.19935178       5.81899110       0.00570112       0.00940635       0.01931492
Ga       2.08371899       1.90425260       1.32159960      -0.00768081      -0.00762934      -0.02239567
Ga       2.83133278       0.59992493       3.57007565       0.00317317      -0.00037066       0.00225629
Sn       3.41079182       3.38353403      -1.09368951      -0.00073885      -0.00051861      -0.00204256
4
Lattice="4.256847163991522 -0.0003541655430055994 2.4596219283993372 1.4196556353341812 4.012136923391215 2.4603480071252815 -0.0009027482445493237 -0.0004856704801715174 4.915795726217626" Properties=species:S:1:pos:R:3:forces:R:3 structure_index=12 total_energy=-11.844104766845703 stress="0.024563409388065338 8.189964137272909e-05 0.007598901633173227 8.195805276045576e-05 0.02158327028155327 0.002911587245762348 0.007599009666591883 0.0029117604717612267 0.03263179957866669" pbc="T T T"
Li       1.43578371       0.90937548       1.79563241       0.00056942      -0.00002844       0.00016256
Ga       1.43513421       3.91728129       6.71272956       0.00157720       0.00096998       0.00057427
Ga       4.27509706       2.91490103       6.71455340      -0.00164776      -0.00059874      -0.00257346
Sn       2.85585236       1.91237720       4.25440460      -0.00049887      -0.00034279       0.00183664
12
Lattice="4.320257723438788 -0.00016191646064889946 -1.4423740767246183 -0.0011685185854510157 6.497946065567807 -0.004607664547661967 0.008482801781466093 0.004412950333986986 7.212378901107176" Properties=species:S:1:pos:R:3:forces:R:3 structure_index=13 total_energy=-34.25162124633789 stress="-0.03342797979712486 0.00033387550502084196 0.0025808236096054316 0.0003338880487717688 0.010819884017109871 0.0012517215218394995 0.0025808322243392467 0.0012517805444076657 -0.028496233746409416" pbc="T T T"
Li       3.59804946       5.61175561       5.18201371       0.00075190      -0.02178557      -0.00012610
Li       2.13210799       5.58314775       0.79624592       0.00058052       0.00340171       0.00016651
Li       0.67512734       2.35847909       3.62170650       0.00049349      -0.01541874       0.00141728
Li       2.13267140       2.33635158       0.79826859       0.00065964      -0.00147635       0.00065148
Li       0.67680741       5.56554556       3.62503661      -0.00197465       0.01576842      -0.00293941
Li       3.60079826       2.31493369       5.18834974      -0.00151361       0.02016830      -0.00040860
Ga       2.84560799       3.96016918       2.93087986      -0.01452403       0.00313790      -0.04495332
Ga       4.27960065       0.70644294       0.03608870      -0.00724539       0.00600997      -0.01904328
Ga       4.30721295       3.96347093       0.12105482       0.00630940      -0.00267455       0.01639557
Ga       1.42982186       0.71697185       5.87934197       0.01562179      -0.00577120       0.04583063
Sn       1.41116090       3.96208370       5.82182558      -0.00278434       0.00195667      -0.00590292
Sn       2.86373287       0.71425096       2.98596355       0.00362528      -0.00331655       0.00891215
18
Lattice="4.026406525172648 0.00023147886382965206 -0.0003815455964711723 -7.526669247579908e-05 6.311613897885865 -0.09733398893822648 0.0007673431217712387 -0.016053522585713364 15.286487977114799" Properties=species:S:1:pos:R:3:forces:R:3 structure_index=14 total_energy=-54.94436264038086 stress="0.020110249519348145 7.248404926940566e-06 4.898128281638492e-06 7.230423761939164e-06 0.01666724495589733 0.0005043904529884458 4.962658294971334e-06 0.0005047161830589175 0.017002146691083908" pbc="T T T"
Li       0.27802738       4.49097342       2.08426013       0.00023017       0.00006318      -0.01250150
Li       0.27751621       1.30507965       2.92263364       0.00064092      -0.02167849      -0.02679637
Li       0.27922192       2.65764513       7.11641925      -0.00017118      -0.00991598       0.00683669
Li       0.28125621       5.81981908      10.31039679      -0.00051313       0.04224957       0.00537500
Li       0.28061221       1.24154989      14.23269470      -0.00036315       0.04127521       0.00679485
Ga       0.27760028       3.80013679       4.59704893       0.00069795      -0.01756317       0.00534198
Ga       2.29340097       1.06612581       8.57620390      -0.00025433      -0.00486138       0.03983493
Ga       0.28048842       2.58726804       9.81499049      -0.00024633      -0.01744997       0.00590445
Ga       0.28157980       3.62000449      12.22281195      -0.00046862       0.02900011      -0.02929004
Ga       2.29412282       5.23947530      12.93252632      -0.00002313       0.01381188       0.00815873
Ga       0.27949575       4.22179258      14.72130059      -0.00010042      -0.01843660      -0.01286002
Ga       2.29077978       5.45684310       3.84983842       0.00059280      -0.00856861       0.02037659
Sn       0.27956378       5.89709682       6.55597796       0.00004503       0.00215196      -0.00224246
Sn       2.29180543       2.73156966       0.92269347      -0.00002450      -0.02681288      -0.01396477
Sn       2.29332237       4.38688757       8.56848510      -0.00016316      -0.00149663      -0.00490242
Sn       2.29456370       1.51944828      11.86545930      -0.00037489       0.01769589       0.04213755
Sn       2.29130099       1.79193130       5.16153963       0.00047589      -0.00299909      -0.01015335
Sn       2.29167661       6.07488972       0.65992447       0.00002010      -0.01646493      -0.02804990
8
Lattice="5.0462796084688595 -0.02828586907417985 -2.978408886307902 -1.7375460977433328 4.853002355907213 -2.7868635151445345 -0.02911072306788409 0.0427958219353926 5.869777814907632" Properties=species:S:1:pos:R:3:forces:R:3 structure_index=15 total_energy=-22.890338897705078 stress="0.008848736993968487 -0.009422986768186092 -0.004558161366730928 -0.009423302486538887 -0.029193654656410217 -0.03250085189938545 -0.00455824751406908 -0.03250093385577202 -0.028060689568519592" pbc="T T T"
Li      -0.48273220       2.72367371      -1.13891232      -0.00064105      -0.00116103       0.00183729
Li       2.90737011       0.27891559      -1.23457131      -0.00147474       0.00155281      -0.00147034
Li       2.89564351       0.30286956       1.69959648      -0.00818395      -0.00039616      -0.00037865
Ga       0.36815948       0.32074816       3.18859639       0.00666146      -0.00231877      -0.00082425
Ga       2.04177216       2.70888982      -2.62724214      -0.00491629      -0.00271873      -0.00256880
Ga      -0.49983264       2.74379844       1.79639148       0.00369718      -0.00247441      -0.00275340
Ga       2.02432592       2.72523147       0.30688985      -0.00010095       0.00478240       0.00248920
Sn       0.38283340       0.29373607       0.25366993       0.00495834       0.00273394       0.00366898
11
Lattice="3.2308619659057847 -0.0025075269609628574 -0.3836140568031627 -0.05043528473392102 4.3312490793359455 -0.4544364459048465 0.4245209082910375 0.41629158851602704 17.372273788509617" Properties=species:S:1:pos:R:3:forces:R:3 structure_index=16 total_energy=-32.99832534790039 stress="-0.021150978282094002 -6.133528950158507e-05 0.0009097734000533819 -6.134016439318657e-05 -0.02536538429558277 -0.0005351245636120439 0.0009095691493712366 -0.000534987892024219 -0.01336391270160675" pbc="T T T"
Li       2.11347085       4.02792013      10.79476541       0.00228131      -0.00951517       0.02019664
Li       2.74511943       0.66960920       2.36913375      -0.00491629      -0.00131072      -0.04118139
Ga       1.45054222       1.01184385       5.24082277      -0.00366315      -0.01527904      -0.02933419
Ga       3.15085687       3.23004655       5.74891525       0.00229469      -0.03147687       0.01878626
Ga       0.75368997       4.62407460      13.13743278       0.00055631       0.02766609       0.00480329
Ga       1.24024921       3.00966808       3.47172751      -0.00248599      -0.00418604      -0.01949605
Ga       1.13683213       0.60314233      16.39654331       0.00062579       0.01774333       0.00467617
Ga       1.78564793       3.77008531       8.03784691       0.00299346      -0.00510602       0.02501198
Sn       0.90425563       2.58115409       0.66269975      -0.00242376       0.00838247      -0.02401327
Sn       2.53906461       2.57988567      14.39223497       0.00135860       0.02193658       0.01151285
Sn       0.35653010       1.73627359       9.81078864       0.00337902      -0.00885463       0.02903771
20
Lattice="6.944517470480807 0.017508773261264404 -0.33237322088137433 0.11663773920931189 6.932208002097555 -0.300191786915244 0.10479344302914718 0.09673361412376466 7.178500098710247" Properties=species:S:1:pos:R:3:forces:R:3 structure_index=17 total_energy=-49.969512939453125 stress="-0.003168586641550064 -0.0010217897361144423 0.0014479282544925809 -0.0010219619143754244 -0.0019555247854441404 0.0004253725637681782 0.0014479282544925809 0.00042534040403552353 0.000612349365837872" pbc="T T T"
Li       3.41972741       4.63081682       1.85280254       0.00163291      -0.03224928      -0.00411337
Li       3.80925307       3.14670507       6.70361642      -0.02113151       0.01732994      -0.00695532
Li       6.94622544       6.24956703       4.69640396      -0.01011553       0.02178238      -0.00856599
Li       4.26523479       1.77852482       2.38562673       0.00995329       0.01810060      -0.00609895
Li       6.09249373       0.97062183       0.26102345       0.00701137       0.01690706      -0.00572778
Li       4.96651712       4.39083060       4.17841081      -0.03978441       0.02007977      -0.01430941
Li       6.82230044       1.72532836       3.34857285       0.00857966      -0.02013067       0.00367622
Li       1.70533330       1.00803566       6.11369300      -0.00603882       0.03979122      -0.00886484
Li       0.84144078       4.60679351       3.25388214       0.00514840      -0.00373616      -0.00481060
Li       6.05071132       3.72349872       1.21015826      -0.00497295      -0.02889602       0.02022360
Li       0.90180373       5.68394388       0.58247758       0.02030981      -0.00487860       0.01348522
Li       4.36537094       0.45205966       4.94420479       0.00463553      -0.01201677       0.01844235
Li       2.10037019       0.08643923       3.35894844       0.01219107      -0.00938383      -0.00101562
Li       3.30822935       0.08966138       0.68259493      -0.00596189      -0.00126249      -0.00584527
Li       0.46510186       3.61982693       6.11450133       0.01247272      -0.01360927      -0.01386640
Ga       2.65669114       5.45135572       5.44609614      -0.01798746      -0.00762668       0.00500240
Ga       5.29051256       5.50635790       6.65619397      -0.02166310      -0.00358150      -0.01000848
Ga       5.65626589       6.28719726       2.11681215       0.00651201      -0.01059878       0.01312689
Sn       1.54284331       2.34749766       1.34868206       0.03098337       0.00391617       0.02670116
Sn       2.60116612       2.77319818       4.26981856       0.00822552       0.01006289      -0.01047587
7
Lattice="4.171638861786621 0.0033611009962307395 0.0004111207778646113 -2.088918735146535 4.743344985293871 -0.539587611197172 -0.001328282309726547 0.025604815680018732 6.88118003330019" Properties=species:S:1:pos:R:3:forces:R:3 structure_index=18 total_energy=-21.007474899291992 stress="0.0011960170231759548 0.0035590440966188908 -0.0018916890257969499 0.0035590671468526125 0.005715843290090561 0.0424182154238224 -0.0018917759880423546 0.04241841286420822 -0.028817884624004364" pbc="T T T"
Li       0.21893777       2.85988737       0.62708022       0.00033496       0.00718737      -0.03977647
Li       2.30553549       2.14973307       2.56784622      -0.00136624       0.00270984       0.01889682
Li       0.21701234       4.26881875       3.44606629       0.00108262       0.00656273      -0.00743114
Ga       2.30356497       3.58607189       5.38864317      -0.00078644      -0.00532338       0.03349560
Ga       2.30526413       0.86820904       6.74721152      -0.00109971       0.00535213      -0.00060758
Sn       0.21899318       1.61523582       4.73186992       0.00081496       0.00275630      -0.02308978
Sn       0.22052591       0.06739524       1.79064220       0.00101984      -0.01924498       0.01851251
20
Lattice="7.5814063583451405 -0.011625939416354007 -1.8283649802009176 -3.5221763754613233 6.427559274531038 -1.7607635485774225 -0.052325434675124835 -0.115933065207219 9.244746263827917" Properties=species:S:1:pos:R:3:forces:R:3 structure_index=19 total_energy=-64.71841430664062 stress="-0.007689966820180416 0.0006932682590559125 1.464359047531616e-05 0.0006931975367479026 -0.006792885717004538 -0.0004197339585516602 1.4624905816162936e-05 -0.0004195204528514296 -0.006235318724066019" pbc="T T T"
Li      -0.14603672       1.73016716       1.06170665      -0.01518949       0.00972109      -0.01275293
Li       2.15125509       3.60712624       6.42905236       0.00034041       0.00158062      -0.01437354
Li      -0.43186500       1.91929412       6.80174887       0.00582764       0.02333829       0.03493403
Li      -1.32711745       4.76900987      -1.34470028      -0.00295202       0.00424676       0.01380250
Li       4.01688787       2.78164336       0.51525303       0.00381042       0.00497826       0.01136539
Li       2.09595438       0.94846205       5.07640489       0.02443624       0.01399812       0.00538554
Li       4.44147211       3.02317246       3.96983216      -0.02545848      -0.01855117      -0.00841554
Li      -0.96676813       4.44175173       2.08660930      -0.00769216       0.00750598      -0.02421139
Ga       4.80712914       0.03209109      -0.26936015      -0.02218717      -0.01334940      -0.03351944
Sn       1.60307927       3.22904234       3.13313674      -0.00494618       0.00886741      -0.01466947
Sn       6.43994722       1.67389453       2.05743352      -0.00067397      -0.00946309      -0.00693785
Sn       2.90417800       0.57038423       2.14585328       0.02176084       0.00315293      -0.00686524