4
Lattice="4.286154278031149 0.0003338891855072947 6.233552958687468e-05 -0.0010351714318689044 4.2862768582568975 -0.0009019535009696752 -3.845361177864011e-05 0.0005479895049412987 4.349901349213114" Properties=species:S:1:pos:R:3:forces:R:3 structure_index=0 total_energy=-12.158600807189941 stress="0.08712321519851685 -0.0020448239520192146 0.000127525141579099 -0.002044680994004011 0.08801531046628952 -0.0018196230521425605 0.00012743650586344302 -0.0018195597222074866 0.0293956957757473" pbc="T T T"
Li       1.00057860       2.96941360       0.83046041       0.00023427       0.00037120       0.00010987
Ga       1.00025659       0.82682876       3.00593867       0.00193547      -0.00005266      -0.00006665
Ga       3.14377143       2.97031313       3.00557409      -0.00078431      -0.00048054      -0.00020142
Sn       3.14417812       0.82664632       0.83100473      -0.00138543       0.00016198       0.00015820
12
Lattice="4.2671358130174655 0.0016672568664934846 -0.8389225669361197 -0.16214481831722166 4.249055179929776 -0.8162507506968134 0.1263698185257093 0.08744067901209533 11.914269309189896" Properties=species:S:1:pos:R:3:forces:R:3 structure_index=1 total_energy=-34.356075286865234 stress="-0.01807737536728382 -0.000363260944141075 0.00025632328470237553 -0.0003631866129580885 -0.00827013235539198 -0.0016596782952547073 0.00025646097492426634 -0.0016598545480519533 -0.016812598332762718" pbc="T T T"
Li       0.93857355       3.26895457       3.37365928      -0.00356590      -0.00409875      -0.02136960
Li       2.38725587       0.36566599      -0.54087130      -0.00058206       0.00124504       0.00140773
Li       4.28982804       0.09054528       9.13721066       0.00517562       0.00710486       0.02638285
Li       3.44564763       3.64784935       4.85155075      -0.00149521      -0.00051614      -0.00504469
Li       2.70880342       2.90091166       1.10351000       0.00021453      -0.00046538       0.00013058
Li       3.88998014       1.89154419       7.10833361       0.00088231       0.00150886       0.00493034
Li       2.07328380       2.21360100       9.13933694       0.00351177       0.00259207       0.01772029
Ga       3.15136103       1.14385037       3.35064474      -0.00049452      -0.00183268      -0.00175587
Ga       1.68418356       4.02509982       7.16415411      -0.00327123      -0.00344484      -0.01692719
Sn       0.28791712       2.56613096      11.32961922       0.00360880       0.00293930       0.01941538
Sn       1.40365418       1.53365426       5.73372418       0.00476953       0.00428463       0.02125819
Sn       0.64236475       0.76086214       1.85947536      -0.00875364      -0.00931698      -0.04614802
4
Lattice="4.117786407470702 0.0 2.378871202468873 1.369800218755856 3.8827156764227997 2.3778123855590816 0.0 0.0 4.756702899932861" Properties=species:S:1:pos:R:3:forces:R:3 structure_index=2 total_energy=-11.497613906860352 stress="0.05540470778942108 0.012351971119642258 -0.001418284373357892 0.012351809069514275 0.049606986343860626 0.0028672264888882637 -0.0014184422325342894 0.002867497270926833 0.05049143731594086" pbc="T T T"
Li       2.65258988       2.12986604       6.41704108      -0.00046223       0.00004669      -0.00144193
Li       4.02342568       3.10036004       4.03728652       0.00057769       0.00055920       0.00089927
Ga       1.28120092       1.15941253       4.03768919      -0.00272241      -0.00032958      -0.00005025
Sn       4.02572785       0.18871023       4.03791378       0.00260694      -0.00027625       0.00059291
12
Lattice="4.4282848616393915 -0.005128318808739829 0.0020507980369850846 0.005477250381443763 4.2110586615130225 0.00482558970881239 -0.0054855873551059265 -0.012759997134159333 12.262101360479594" Properties=species:S:1:pos:R:3:forces:R:3 structure_index=3 total_energy=-35.48748779296875 stress="0.016647368669509888 0.0035623719450086355 -0.00016652177146170288 0.0035621935967355967 0.0028363580349832773 0.006186500657349825 -0.00016662618145346642 0.006186671555042267 -0.012568974867463112" pbc="T T T"
Li       3.54818904       3.50454289      11.04203882      -0.00026138      -0.00268241       0.01881114
Li       3.55026031       1.40883814       0.75153219      -0.00054961      -0.00116302      -0.01895535
Li       3.54884652       1.39968203       5.14662288      -0.00080420       0.00114607       0.02252518
Li       3.55016369       3.50307828       7.10346144      -0.00034399       0.00312452      -0.01595001
Li       3.54610398       1.39925358       9.06547389       0.00020361      -0.00138837       0.01087682
Ga       1.33664842       3.50925239       5.25775251       0.00057819      -0.00075910       0.00634203
Ga       1.33874347       3.51490548       0.63327812      -0.00003226       0.00208967      -0.01842351
Ga       1.33069378       1.39931449      11.14676591       0.00090417       0.00017470       0.03346515
Ga       1.33317320       1.40193943       6.99635323       0.00036628       0.00087861      -0.03257746
Sn       1.33494416       3.50713609       9.07072433      -0.00017225      -0.00184454       0.00892499
Sn       3.55182071       3.50898299       3.00332463       0.00024042       0.00016075      -0.04853275
Sn       1.33510534       1.40604523       2.90727095      -0.00012899       0.00026314       0.03349376
5
Lattice="2.8960573200347217 0.0008628538085862413 -5.153423978074393e-06 -0.001262604004948206 4.399794414651233 -1.3257397022285824 0.0004615528701045526 -0.1850640975434021 7.352698045990413" Properties=species:S:1:pos:R:3:forces:R:3 structure_index=4 total_energy=-14.805756568908691 stress="-0.008663606829941273 0.00016938634507823735 3.4050590329570696e-05 0.00016937345208134502 -0.03807447478175163 -0.0036154305562376976 3.410636054468341e-05 -0.0036153793334960938 -0.04956064745783806" pbc="T T T"
Li       0.20486813       3.09893120      -0.39413435      -0.00055321       0.00980991       0.02877772
Li       0.20512278       1.99013940       3.88512033      -0.00025100      -0.01003525      -0.03002460
Ga       1.65269331       1.26152508       1.46563138       0.00066783       0.00529865       0.01397480
Ga       1.65276500       3.82995561       2.02378525      -0.00024563      -0.00594446      -0.01248999
Sn       1.65338774       0.25175931       6.08445013       0.00038202       0.00087114      -0.00023794
9
Lattice="5.110255029484735 0.5025793806009594 0.6433747779104072 2.847301368339155 4.273623712162788 0.6438706663598033 -0.7774204262697854 -0.4663760175921354 9.775305859482325" Properties=species:S:1:pos:R:3:forces:R:3 structure_index=5 total_energy=-28.466035842895508 stress="-0.030590791255235672 2.4173961719498038e-05 0.002861176384612918 2.4206454327213578e-05 -0.024324661120772362 0.0028168573044240475 0.0028612175956368446 0.0028170228470116854 -0.024858899414539337" pbc="T T T"
Li       1.17889682       1.98291618       5.36215801       0.00003774       0.00011296       0.00010726
Li       2.91429106       0.46042692       7.52818574       0.02429643       0.01398144      -0.03262585
Li       4.55402448       4.00844792       3.83971213      -0.02449898      -0.01415250       0.03255751
Ga       5.00239470       1.71340868       1.82650389      -0.02017015      -0.01337992       0.00064199
Ga       2.46613314       2.75570942       9.54147614       0.01986118       0.01310349      -0.00085860
Sn       3.52650025       3.39175614       6.72841645      -0.00806730      -0.00342611       0.01459805
Sn       5.26370930       1.87054729       9.00774232       0.01550049       0.00793897       0.01783547
Sn       2.20465333       2.59838501       2.36008408      -0.01528336      -0.00786609      -0.01764671
Sn       3.94160616       1.07680125       4.63936608       0.00832396       0.00368778      -0.01460911
12
Lattice="4.310828004159715 -0.006290200577398303 1.36677588648932 1.904799946019297 6.576530912863564 1.505086712792466 0.15213946466839345 -0.3455915443918854 6.999849407024584" Properties=species:S:1:pos:R:3:forces:R:3 structure_index=6 total_energy=-29.792909622192383 stress="0.005621209274977446 -0.000689949665684253 -0.0020636145491153 -0.0006899639265611768 0.011275465600192547 0.0026139558758586645 -0.002063628751784563 0.0026136431843042374 0.011606880463659763" pbc="T T T"
Li       3.84141336       3.38982467       3.59120946       0.00627379       0.01134122      -0.02043727
Li       5.60554581       4.55967445       5.51452100       0.00263563       0.02014281      -0.00911118
Li       3.11352117       5.55980243       5.89706719      -0.00878682      -0.01783413       0.02721161
Li       3.03557295       0.20969207       6.11643594      -0.00161905      -0.02363193       0.00574731
Li       4.77322699       1.27345134       8.12253019      -0.00562645      -0.01214099       0.01853099
Li       3.90825240       6.38486676       3.39273912      -0.00231407       0.00633879       0.00791655
Li       2.10977651       2.54098668       1.56712462       0.00345325       0.03288582      -0.01153553
Li       1.30396236       1.74396725       4.10349374      -0.00707532       0.02140204       0.02311370
Li       2.10395008       5.41792500       1.59758698      -0.00049149       0.00009068       0.00271029
Ga       3.07181849       2.81522095       6.01543434       0.01169975      -0.03476105      -0.03907778
Ga       3.82701930       0.72349204       3.62193122      -0.00592642       0.01722202       0.01968915
Sn       4.77959322       4.04980823       8.11583759       0.00777719      -0.02105528      -0.02475783
10
Lattice="2.826559982401841 -5.624404206707502e-05 0.0004773468075166745 5.710317581575143e-05 2.826556269873518 0.0002626156548139238 -0.00349947051972817 -0.0018401982388810691 21.124430867334272" Properties=species:S:1:pos:R:3:forces:R:3 structure_index=7 total_energy=-28.351606369018555 stress="-0.017505468800663948 4.8465653890161775e-06 -1.7279510302614653e-06 4.816378350369632e-06 -0.01762714423239231 -3.6757157886313507e-06 -2.160767735404079e-06 -3.479607585177291e-06 -0.014705819077789783" pbc="T T T"
Li       0.58699551       0.95850695       2.40434733       0.00000775       0.00001493       0.03435735
Li       0.58506577       0.95780462      15.44469507      -0.00000158      -0.00002589      -0.03413124
Li       0.58426940       0.95725823      19.48665139       0.00000401      -0.00000711       0.00002908
Li       0.58630605       0.95804410       6.54950987       0.00003983       0.00009018       0.02938473
Li       0.58581451       0.95815386      11.30004477      -0.00004933      -0.00007254      -0.02964984
Ga       1.99992964       2.37147207       4.48065581       0.00003459       0.00006432       0.02835920
Ga       2.00068801       2.37205317       0.37731933       0.00000175      -0.00000097       0.02319195
Ga       1.99877948       2.37127975      13.36952922      -0.00003308      -0.00006617      -0.02867107
Ga       1.99797317       2.37079343      17.47231985       0.00000555      -0.00001493      -0.02302520
Sn       1.99937773       2.37133253       8.92507996      -0.00000951       0.00001821       0.00015501
4
Lattice="4.3692260753278145 -0.004750651359698115 0.00030370489973484383 0.0007839218032632551 4.266484835802982 0.000691837490836339 -0.0018472525438259604 -0.001135674155365821 4.268788661054184" Properties=species:S:1:pos:R:3:forces:R:3 structure_index=8 total_energy=-12.158543586730957 stress="0.030663080513477325 -0.019335929304361343 -0.0076819658279418945 -0.019335992634296417 -0.09047126770019531 -0.0013544842367991805 -0.007681835908442736 -0.0013544572284445167 -0.07412051409482956" pbc="T T T"
Li       1.24505478       2.94695734       0.63046432      -0.00012324       0.00042385       0.00020522
Ga       3.42914899       0.81178736       0.63032160      -0.00010385      -0.00014702       0.00014200
Ga       3.42853851       2.94462773       2.76523651       0.00009454      -0.00080870      -0.00027934
Sn       1.24350778       0.81330642       2.76456050       0.00013255       0.00053188      -0.00006788
4
Lattice="4.353978434405473 0.00020789854770958353 0.00027062058274019974 -0.00015006203901347283 4.277103214738815 -0.0003392231582230284 -0.0003657402080897332 0.0003700737621758451 4.2777540594109755" Properties=species:S:1:pos:R:3:forces:R:3 structure_index=9 total_energy=-12.158662796020508 stress="-0.04824947938323021 0.00026568755856715143 -0.0005121754948049784 0.0002656147407833487 -0.034132953733205795 9.292413596995175e-05 -0.0005122225848026574 9.297107317252085e-05 -0.02939598448574543" pbc="T T T"
Li       1.56335586       3.00078381       2.77562582      -0.00043289      -0.00008547       0.00031766
Ga       3.73998325       0.86249279       2.77633234      -0.00037282      -0.00002417      -0.00044846
Ga       3.73982060       3.00094623       0.63699402       0.00033035      -0.00063359       0.00013994
Sn       1.56280621       0.86192752       0.63715446       0.00047536       0.00074325      -0.00000914
4
Lattice="4.056038069576096 0.0005911467391556446 0.0005006611930125742 -0.0006455067673637994 4.055978662446403 0.000369475664308764 -0.0005938734042180468 -0.00043904365649573415 4.448302039353079" Properties=species:S:1:pos:R:3:forces:R:3 structure_index=10 total_energy=-11.800260543823242 stress="0.031666941940784454 -0.0005071691703051329 -0.0001463499356759712 -0.0005073292413726449 0.031362153589725494 -0.00010821261093951762 -0.00014635299157816917 -0.00010823096090462059 0.0977180004119873" pbc="T T T"
Li       3.17437383       2.40122741       0.18826622       0.00000214       0.00002420      -0.00002464
Li       1.14656507       0.37331885       0.18789209       0.00056533      -0.00072717      -0.00012402
Ga       1.14609126       2.40067173       2.41246258       0.00091446      -0.00070971      -0.00036337
Sn       3.17474299       0.37268222       2.41210147      -0.00148194       0.00141268       0.00051203
20
Lattice="5.014768451195613 0.0011678346787279592 -0.004032580757649326 -0.003808982487026728 7.628128804016755 -2.5456556099157357 0.007760895961669553 -0.04265786183050507 10.391486415416116" Properties=species:S:1:pos:R:3:forces:R:3 structure_index=11 total_energy=-59.8759880065918 stress="0.005826815962791443 -1.3615244824904948e-05 -1.6082858564914204e-05 -1.354034884570865e-05 -0.011993616819381714 -0.004502975847572088 -1.613614040252287e-05 -0.004503108095377684 -0.010328948497772217" pbc="T T T"
Li       2.49519758       4.07129836       6.25991260      -0.00069209       0.00989052      -0.02468966
Li       2.49068942       2.57806682       3.74941647       0.00050279       0.00429133       0.01358424
Li       2.48792376       7.07834068       1.14941452       0.00157017       0.00099325      -0.01796495
Li       5.00257733       0.99209530       7.94189557       0.00070575      -0.00655497      -0.01065829
Li       2.49392933       7.11632069       6.31802955      -0.00006423       0.00949977       0.01427561
Li       4.99652154       5.61022888       0.20277588      -0.00070818      -0.00942182      -0.00042147
Ga       5.00124182       5.57740221       5.37208493      -0.00056750       0.01238165       0.00826993
Ga       4.99720322       7.04131562       2.82896225       0.00011854      -0.02770444       0.01550169
Ga       2.48812704       4.23986725       1.20270572       0.00097432       0.00779006      -0.00041177
Ga       5.00036298       0.89926214       3.00560577      -0.00098715       0.00166479       0.04168792
Ga       4.99738986       2.66303262      -0.01289182      -0.00021412       0.01308494      -0.01877080
Ga       2.49134623       5.58865655       3.81991483      -0.00027510       0.00482065      -0.00581919
Ga       5.00313033       3.92921803       7.91025345       0.00001656      -0.00625531      -0.01464386
Ga       2.49563108       2.40126374       8.83045334       0.00069270      -0.02014766      -0.01876297
Ga       5.00086258       2.62966229       5.43685300       0.00013333       0.00808770       0.00210952
Sn       2.49431679       1.01625320       6.22924140      -0.00003195      -0.00360261      -0.01417195
Sn       2.49220116       1.28625460       1.19370757      -0.00077688       0.00923963       0.00814044
Sn       5.00292646       7.14367533       7.97342201      -0.00026052       0.02375384       0.03591229
Sn       4.99698947       3.95491771       2.74877093       0.00011632      -0.01061618      -0.00286798
Sn       2.48855697       5.35060820      -1.46351595      -0.00025271      -0.02119516      -0.01029873
4
Lattice="4.056016335107979 0.003473582629024761 -0.0055076800165577726 -0.005116118012687271 4.0574220703196096 -0.008088961228036987 0.006507976334426969 0.009556595768694855 4.4468471051608" Properties=species:S:1:pos:R:3:forces:R:3 structure_index=12 total_energy=-11.800267219543457 stress="0.03650517761707306 -0.015256020240485668 0.0015621172497048974 -0.015256066806614399 0.04366009309887886 0.002206243807449937 0.0015621213242411613 0.0022062796633690596 0.08615660667419434" pbc="T T T"
Li       0.82727432       2.04138623       2.29024820       0.00009839      -0.00006913       0.00003847
Li       2.85788424       0.01452242       2.29200078      -0.00004839      -0.00024653      -0.00084929
Ga       2.85213275       2.03834448       0.06414417      -0.00026442      -0.00048724       0.00018819
Sn       0.82661357       0.00772059       0.07088907       0.00021442       0.00080290       0.00062264
12
Lattice="4.279220697498342 0.003103967901003307 -0.7198640253659866 -0.12756823415535465 4.38358549734909 -0.7385978420816959 -0.04506672747466159 -0.09820106661428854 12.81493089980035" Properties=species:S:1:pos:R:3:forces:R:3 structure_index=13 total_energy=-36.52814483642578 stress="0.019000165164470673 -0.0002680211327970028 -0.0036789539735764265 -0.00026797698228619993 -0.009094593115150928 0.001822685357183218 -0.0036788119468837976 0.0018225510139018297 -0.0019688087049871683" pbc="T T T"
Li       2.19456888       0.16579516       1.09296497       0.00067498      -0.00049719      -0.00004636
Li       1.37215362       3.77852911       9.29381919      -0.00507764      -0.00292901      -0.01848281
Li       2.84644969       0.83825637       4.96642527       0.00375391       0.00311749       0.01750560
Li       3.84721314       4.12745603      10.93661587       0.00061412       0.00011317       0.00138707
Li       0.36973846       0.48970745       3.32340917      -0.00019880      -0.00134211      -0.00056071
Ga       3.57737697       1.59208029       9.32112136       0.00155010      -0.00024207      -0.00206207
Ga      -0.00884437       2.35494419       1.08058490       0.00142876       0.00288704       0.01050397
Ga       0.63970592       3.02601239       4.94064762      -0.00000034      -0.00099994      -0.00172797
Sn       3.15826372       3.41803370       6.83491623       0.00229194      -0.00558438      -0.02477156
Sn       1.06106331       1.20000314       7.42374006      -0.00250167       0.00631495       0.03113642
Sn       2.45147849       2.68867227       2.63035158       0.00644247       0.00672042       0.03573016
Sn       1.76609910       1.92823447      11.63274737      -0.00897782      -0.00755840      -0.04861178
6
Lattice="2.9607240422554253 -0.00031680041918770045 -0.5237386524588326 -0.2042454430982719 4.503559902784793 -1.1580357795997698 0.194003935033419 0.15063916400049002 9.76518045572021" Properties=species:S:1:pos:R:3:forces:R:3 structure_index=14 total_energy=-18.25778579711914 stress="0.02382967248558998 0.0009371370542794466 -0.008510245941579342 0.0009371631895191967 -0.01936556212604046 0.003676782362163067 -0.008510403335094452 0.003676709486171603 -0.0239532683044672" pbc="T T T"
Li       0.69439930       1.09403050       8.88532719       0.00399404       0.01185373       0.01953018
Li       2.90672845       2.38654044       4.13503703       0.00200195       0.00263171       0.00985301
Ga       2.56756089       4.27871073       2.18963398      -0.00171779      -0.00483327      -0.01217005
Ga       1.68860814       0.36677554       5.86648856      -0.00245051       0.00024772      -0.00936560
Sn       2.41188609       1.63863367       1.29932345       0.00258834      -0.00642638       0.01118457
Sn       1.87498865       3.05017926       6.92161209      -0.00441603      -0.00347352      -0.01903209
12
Lattice="4.296498844311518 0.0018463445129078444 0.001025355394841508 -0.0021974346767934852 6.27540599224798 -0.0007109855154508668 -0.0018854890611074283 0.002088444913898937 9.214929878266593" Properties=species:S:1:pos:R:3:forces:R:3 structure_index=15 total_energy=-36.92870330810547 stress="-0.015299959108233452 0.00046951152035035193 -0.00032304442720487714 0.0004696246760431677 0.003523640800267458 0.00020993922953493893 -0.00032304218620993197 0.00021004582231398672 -0.00050061393994838" pbc="T T T"
Li       1.71360194       5.16483264       3.07293185      -0.00036633      -0.02286987      -0.00618401
Li       1.71446542       2.03015296       3.23484560       0.00001156      -0.02769222       0.00483509
Li       3.86122987       3.85057616       7.84335291       0.00032933       0.02461050       0.00326534
Li       3.86230219       0.71091540       7.67971226       0.00038531       0.02958986      -0.00348616
Ga       1.71484183       2.21284230       0.09696969      -0.00085435       0.01908240       0.01803174
Ga       3.86263946       0.52663898       1.60221500       0.00159758      -0.02485202      -0.01763742
Ga       1.71344634       5.35233414       6.21196291      -0.00008567       0.02282867      -0.02741642
Ga       3.86249757       3.66618917       4.70427806      -0.00002971      -0.02033395       0.02123091
Sn       3.86169548       3.53292555       1.68266557       0.00209898      -0.02106066      -0.02797361
Sn       1.71368990       5.47981182       0.01374725      -0.00081348       0.02775576       0.03921833
Sn       1.71460970       2.34541531       6.29096154      -0.00114069       0.02379799      -0.03039875
Sn       3.86386963       0.39989880       4.62565178      -0.00113252      -0.03085646       0.02651495
14
Lattice="4.54640494587061 -0.0028674124665197037 -1.13462978924479 0.04184018639376218 5.679340416865585 0.15312934370198145 -0.04541305637891455 0.14389679494845137 9.493535769985204" Properties=species:S:1:pos:R:3:forces:R:3 structure_index=16 total_energy=-39.034339904785156 stress="0.012266533449292183 -0.0013026571832597256 0.0002634970296639949 -0.00130263261962682 0.015651259571313858 -0.005306289531290531 0.00026343364152126014 -0.005306384526193142 0.013066752813756466" pbc="T T T"
Li       1.57989955       3.02877281       3.45295636       0.00106575      -0.00276332       0.00438987
Li       0.32238492       2.62395253       8.09061500      -0.00190774      -0.02715830      -0.00736341
Li       3.59921265       4.78431044       1.86388262      -0.00438404       0.02536072      -0.01748456
Li       4.15311042       0.53003949       4.09452843       0.00257754       0.04569668       0.00979153
Li       2.87033872       0.74070636       8.62880634      -0.00003784      -0.01318152       0.00077839
Li       0.97254639       4.40107061       1.01570916       0.00294322      -0.02624320       0.01162585
Li       2.18867869       1.68108808       5.89543818       0.00161259       0.01172424       0.00689454
Li       3.56333581       1.92513856       1.72755887       0.00026685       0.01572644       0.00049927
Li       2.21781253       4.53429165       6.00537482       0.00197519       0.01037655       0.00736007
Ga       1.54092063       0.25115159       3.30428935       0.00284907      -0.01114644       0.01101755
Ga       0.97520669       1.44005547       1.03388710      -0.00138510      -0.04181483      -0.00548152
Sn       0.24733321      -0.16324645       7.79726022       0.00190226      -0.02201333       0.00763626
Sn       4.19855270       3.34151797       4.26905003      -0.00330213       0.04567295      -0.01338042
Sn       2.96258497       3.41882808      -0.68392420      -0.00417565      -0.01023665      -0.01628342
12
Lattice="5.1159629624391165 -0.0012362562751914445 -0.006495522502061553 -2.558039611830191 4.4305070558652195 0.0032753874444596824 -0.009239399649459426 -0.008667498116736757 12.332332682364552" Properties=species:S:1:pos:R:3:forces:R:3 structure_index=17 total_energy=-39.050994873046875 stress="-0.014711176976561546 -4.5579996367450804e-05 1.61444659170229e-05 -4.5611493987962604e-05 -0.014790563844144344 -2.035933175648097e-05 1.611843799764756e-05 -2.0252022295608185e-05 -0.016906993463635445" pbc="T T T"
Li      -2.12133355       4.32626033       0.84512866      -0.00003756      -0.00006655      -0.00030995
Li      -2.12679916       4.32129182       7.01258468       0.00008802       0.00002095      -0.00143592
Ga       2.98767257       1.36538904      11.57615218       0.00038845       0.00019331       0.05128774
Ga       2.98566783       1.36583993       8.61131606      -0.00042665      -0.00013465      -0.05057366
Ga       0.43545870       2.84523454       5.39673634       0.00051822       0.00025848       0.05090883
Ga       0.43427591       2.84627955       2.43119415      -0.00060253      -0.00014823      -0.04970066
Sn       2.99312561       1.36812779       5.58752424       0.00053507      -0.00009565      -0.05079936
Sn       0.42795812       2.84295341       8.41995811      -0.00044968       0.00009877       0.05102751
Sn      -2.12301738       4.32280498       3.92678985      -0.00001492       0.00011142      -0.00074343
Sn       0.42990797       2.84240848      11.73978219       0.00008816       0.00014669      -0.04950741
Sn       2.99200013       1.36933844       2.26729039      -0.00002427      -0.00031844       0.05037932
Sn      -2.12937545       4.32025872      10.09431948      -0.00006232      -0.00006608      -0.00053303
5
Lattice="3.668817116909434 0.008208665373677442 1.6037762961389233 1.8057020276867186 4.840712616596935 0.8472273755555758 -0.08949364153837254 -0.07952516268086578 5.201221277303407" Properties=species:S:1:pos:R:3:forces:R:3 structure_index=18 total_energy=-14.614542007446289 stress="0.044254500418901443 -0.004976938012987375 0.031942252069711685 -0.004976872820407152 -0.035829801112413406 0.03094724752008915 0.03194228559732437 0.030947357416152954 -0.02383843995630741" pbc="T T T"
Li       2.77309028       2.31999688       3.61758400       0.00605319      -0.00067715      -0.00957895
Li       1.37758738       0.49147355       1.82263435       0.00153088      -0.00860792      -0.00536933
Ga       1.70057881       3.26778493       1.07171061      -0.01094089       0.00050446       0.02463055
Ga       3.81128922       1.44554689       6.24601850       0.00726908       0.01514223      -0.01876132
Sn       4.22640231       4.33009472       5.28434476      -0.00391227      -0.00636161       0.00907905
4
Lattice="4.351691118227912 -1.1113544815388828e-05 -0.0013034327232873827 1.1381959873985141e-05 4.285249624778594 0.00018172760424572118 0.0013363295337262887 -0.000163522189070139 4.28527646987011" Properties=species:S:1:pos:R:3:forces:R:3 structure_index=19 total_energy=-12.158612251281738 stress="0.04168560728430748 2.690675955818733e-06 0.0002730812120717019 2.6679558686737437e-06 0.08515699207782745 5.953307481831871e-05 0.000273005134658888 5.952024002908729e-05 0.08536691963672638" pbc="T T T"
Li       4.21629231       1.71670009       1.29544472      -0.00007136      -0.00043708      -0.00107770
Ga       2.04026906       3.85885745       1.29568055       0.00008696       0.00072072      -0.00025368
Ga       2.04106620       1.71673869       3.43776031      -0.00023896      -0.00073789       0.00094514
Sn       4.21675686       3.85916135       3.43776951       0.00022336       0.00045425       0.00038624
9
Lattice="4.4895906290512775 0.010960713033006927 1.4129427319034427 2.1723056786715094 5.160228812903253 0.9013428135629232 0.12064750363494493 -0.1757803144538559 7.460592685265559" Properties=species:S:1:pos:R:3:forces:R:3 structure_index=20 total_energy=-26.860376358032227 stress="-9.815864905249327e-05 -0.0001997023355215788 -0.0012225633254274726 -0.00019967024854850024 0.011710180900990963 0.002355988137423992 -0.0012225958053022623 0.002355949953198433 0.004825969226658344" pbc="T T T"
Li       2.23850819       3.15573245       1.03568958       0.00421945      -0.01759896      -0.01239544
Li       1.52236837       1.48856765       3.32194796      -0.00428186       0.01951398       0.01190637
Li       3.02686820       4.81480285       6.35935993      -0.00010567       0.00032024       0.00031799
Ga       3.85216482       3.29180354       3.74469341       0.00300681       0.01862596      -0.01008452
Ga       5.20032403       2.73618448       7.30499985      -0.00258688      -0.04341284       0.01271524
Ga       4.39888418       1.36477787       2.02372538      -0.00399330      -0.01939053       0.01288772
Ga       3.16980719       1.74646819       5.92589186       0.00354283       0.04036284      -0.01470670
Sn       4.66914358       4.97695694       8.98385568       0.00307622      -0.00925516      -0.01511415
Sn       5.87408514       4.66411690       5.14881932      -0.00287760       0.01083450       0.01447353
5
Lattice="4.099492861513104 -0.011949767979409786 0.0579532020241055 -0.0005059550385019846 4.189038663131472 1.276270837935314 -0.054225261261785083 0.1560664478182696 6.286152226044034" Properties=species:S:1:pos:R:3:forces:R:3 structure_index=21 total_energy=-14.727855682373047 stress="0.05282432585954666 -0.007601149380207062 0.008947208523750305 -0.007601168937981129 0.06208743527531624 -0.007076163776218891 0.00894718337804079 -0.007076175417751074 0.0333503857254982" pbc="T T T"
Li       1.86682431       2.97738106       5.49068494       0.01908978       0.01455406       0.02156032
Ga       3.94483243       0.93685216       4.64474876      -0.00868201       0.00545194       0.00774609