phonopy:
  version: "2.37.1"
  frequency_unit_conversion_factor: 15.633302
  symmetry_tolerance: 1.00000e-05

space_group:
  type: "P1"
  number: 1
  Hall_symbol: "P 1"

primitive_matrix:
- [ -1.000000000000000,  1.000000000000000,  0.000000000000000 ]
- [  0.000000000000000,  1.000000000000000,  0.000000000000000 ]
- [  0.000000000000000,  0.000000000000000, -1.000000000000000 ]

supercell_matrix:
- [   3,   0,   0 ]
- [   0,   2,   0 ]
- [   0,   0,   1 ]

primitive_cell:
  lattice:
  - [    -4.342628880410816,     0.000000000000000,     0.000000000000000 ] # a
  - [     2.171205190218799,     6.266396330410920,     0.000000000000000 ] # b
  - [     0.000578872830996,    -1.267363520341942,   -12.712896439561376 ] # c
  points:
  - symbol: Li # 1
    coordinates: [  0.885760610332299,  0.759289682308704,  0.996882541120864 ]
    mass: 6.940000
  - symbol: Li # 2
    coordinates: [  0.045952740250759,  0.079914505298234,  0.835594267289088 ]
    mass: 6.940000
  - symbol: Li # 3
    coordinates: [  0.050745903272864,  0.088890514538642,  0.160483972305487 ]
    mass: 6.940000
  - symbol: Li # 4
    coordinates: [  0.545087983263349,  0.077971145937852,  0.684870993645708 ]
    mass: 6.940000
  - symbol: Li # 5
    coordinates: [  0.720114324690892,  0.427875020157136,  0.166997405975770 ]
    mass: 6.940000
  - symbol: Li # 6
    coordinates: [  0.390385540191426,  0.768190394167901,  0.495407710110197 ]
    mass: 6.940000
  - symbol: Li # 7
    coordinates: [  0.217544001233047,  0.423090887310487,  0.676411028858065 ]
    mass: 6.940000
  - symbol: Li # 8
    coordinates: [  0.891601501699761,  0.770633566808030,  0.329169252193946 ]
    mass: 6.940000
  - symbol: Li # 9
    coordinates: [  0.218707055199762,  0.425462810633014,  0.989301513518842 ]
    mass: 6.940000
  - symbol: Li # 10
    coordinates: [  0.713799510329589,  0.415618064233978,  0.500476727102637 ]
    mass: 6.940000
  - symbol: Ga # 11
    coordinates: [  0.554297291533451,  0.095999578285929,  0.332483403387838 ]
    mass: 69.723000
  - symbol: Ga # 12
    coordinates: [  0.724162834812843,  0.436448147436546,  0.834167387788581 ]
    mass: 69.723000
  - symbol: Ga # 13
    coordinates: [  0.371553232594043,  0.731148412031038,  0.836388611246162 ]
    mass: 69.723000
  - symbol: Sn # 14
    coordinates: [  0.877215533344438,  0.742153234379538,  0.670322637872206 ]
    mass: 118.710000
  - symbol: Sn # 15
    coordinates: [  0.386711822807880,  0.760899209364880,  0.168286855498495 ]
    mass: 118.710000
  - symbol: Sn # 16
    coordinates: [  0.215451167816260,  0.418323761194986,  0.331986971260449 ]
    mass: 118.710000
  - symbol: Sn # 17
    coordinates: [  0.557249094610413,  0.102263396528534,  0.984532306426752 ]
    mass: 118.710000
  - symbol: Sn # 18
    coordinates: [  0.049892995362384,  0.087380719139166,  0.509937923849748 ]
    mass: 118.710000
  reciprocal_lattice: # without 2pi
  - [    -0.230275261261883,     0.079786661434803,    -0.007964511052702 ] # a*
  - [    -0.000000000000000,     0.159581352227433,    -0.015908851716161 ] # b*
  - [    -0.000000000000000,     0.000000000000000,    -0.078660280507603 ] # c*

unit_cell:
  lattice:
  - [     4.342628880410817,     0.000000000000000,     0.000000000000000 ] # a
  - [    -2.171423690192018,     6.266396330410922,     0.000000000000000 ] # b
  - [    -0.000578872830996,     1.267363520341943,    12.712896439561376 ] # c
  points:
  - symbol: Li # 1
    coordinates: [  0.873529071976405,  0.759289682308704,  0.003117458879136 ]
    mass: 6.940000
    reduced_to: 1
  - symbol: Li # 2
    coordinates: [  0.033961765047475,  0.079914505298234,  0.164405732710912 ]
    mass: 6.940000
    reduced_to: 2
  - symbol: Li # 3
    coordinates: [  0.038144611265778,  0.088890514538642,  0.839516027694513 ]
    mass: 6.940000
    reduced_to: 3
  - symbol: Li # 4
    coordinates: [  0.532883162674504,  0.077971145937852,  0.315129006354292 ]
    mass: 6.940000
    reduced_to: 4
  - symbol: Li # 5
    coordinates: [  0.707760695466244,  0.427875020157135,  0.833002594024230 ]
    mass: 6.940000
    reduced_to: 5
  - symbol: Li # 6
    coordinates: [  0.377804853976475,  0.768190394167901,  0.504592289889803 ]
    mass: 6.940000
    reduced_to: 6
  - symbol: Li # 7
    coordinates: [  0.205546886077440,  0.423090887310487,  0.323588971141935 ]
    mass: 6.940000
    reduced_to: 7
  - symbol: Li # 8
    coordinates: [  0.879032065108269,  0.770633566808030,  0.670830747806054 ]
    mass: 6.940000
    reduced_to: 8
  - symbol: Li # 9
    coordinates: [  0.206755755433251,  0.425462810633013,  0.010698486481158 ]
    mass: 6.940000
    reduced_to: 9
  - symbol: Li # 10
    coordinates: [  0.701818553904389,  0.415618064233978,  0.499523272897363 ]
    mass: 6.940000
    reduced_to: 10
  - symbol: Ga # 11
    coordinates: [  0.541702286752477,  0.095999578285928,  0.667516596612162 ]
    mass: 69.723000
    reduced_to: 11
  - symbol: Ga # 12
    coordinates: [  0.712285312623703,  0.436448147436546,  0.165832612211419 ]
    mass: 69.723000
    reduced_to: 12
  - symbol: Ga # 13
    coordinates: [  0.359595179436995,  0.731148412031038,  0.163611388753838 ]
    mass: 69.723000
    reduced_to: 13
  - symbol: Sn # 14
    coordinates: [  0.864937701035100,  0.742153234379538,  0.329677362127794 ]
    mass: 118.710000
    reduced_to: 14
  - symbol: Sn # 15
    coordinates: [  0.374187386557000,  0.760899209364880,  0.831713144501505 ]
    mass: 118.710000
    reduced_to: 15
  - symbol: Sn # 16
    coordinates: [  0.202872593378726,  0.418323761194986,  0.668013028739551 ]
    mass: 118.710000
    reduced_to: 16
  - symbol: Sn # 17
    coordinates: [  0.545014301918121,  0.102263396528534,  0.015467693573248 ]
    mass: 118.710000
    reduced_to: 17
  - symbol: Sn # 18
    coordinates: [  0.037487723776781,  0.087380719139165,  0.490062076150252 ]
    mass: 118.710000
    reduced_to: 18

supercell:
  lattice:
  - [    13.027886641232449,     0.000000000000000,     0.000000000000000 ] # a
  - [    -4.342847380384035,    12.532792660821844,     0.000000000000000 ] # b
  - [    -0.000578872830996,     1.267363520341943,    12.712896439561376 ] # c
  points:
  - symbol: Li # 1
    coordinates: [  0.291176357325468,  0.379644841154352,  0.003117458879136 ]
    mass: 6.940000
    reduced_to: 1
  - symbol: Li # 2
    coordinates: [  0.624509690658802,  0.379644841154352,  0.003117458879136 ]
    mass: 6.940000
    reduced_to: 1
  - symbol: Li # 3
    coordinates: [  0.957843023992135,  0.379644841154352,  0.003117458879136 ]
    mass: 6.940000
    reduced_to: 1
  - symbol: Li # 4
    coordinates: [  0.291176357325468,  0.879644841154352,  0.003117458879136 ]
    mass: 6.940000
    reduced_to: 1
  - symbol: Li # 5
    coordinates: [  0.624509690658802,  0.879644841154352,  0.003117458879136 ]
    mass: 6.940000
    reduced_to: 1
  - symbol: Li # 6
    coordinates: [  0.957843023992135,  0.879644841154352,  0.003117458879136 ]
    mass: 6.940000
    reduced_to: 1
  - symbol: Li # 7
    coordinates: [  0.011320588349158,  0.039957252649117,  0.164405732710912 ]
    mass: 6.940000
    reduced_to: 7
  - symbol: Li # 8
    coordinates: [  0.344653921682492,  0.039957252649117,  0.164405732710912 ]
    mass: 6.940000
    reduced_to: 7
  - symbol: Li # 9
    coordinates: [  0.677987255015825,  0.039957252649117,  0.164405732710912 ]
    mass: 6.940000
    reduced_to: 7
  - symbol: Li # 10
    coordinates: [  0.011320588349158,  0.539957252649117,  0.164405732710912 ]
    mass: 6.940000
    reduced_to: 7
  - symbol: Li # 11
    coordinates: [  0.344653921682492,  0.539957252649117,  0.164405732710912 ]
    mass: 6.940000
    reduced_to: 7
  - symbol: Li # 12
    coordinates: [  0.677987255015825,  0.539957252649117,  0.164405732710912 ]
    mass: 6.940000
    reduced_to: 7
  - symbol: Li # 13
    coordinates: [  0.012714870421926,  0.044445257269321,  0.839516027694513 ]
    mass: 6.940000
    reduced_to: 13
  - symbol: Li # 14
    coordinates: [  0.346048203755259,  0.044445257269321,  0.839516027694513 ]
    mass: 6.940000
    reduced_to: 13
  - symbol: Li # 15
    coordinates: [  0.679381537088593,  0.044445257269321,  0.839516027694513 ]
    mass: 6.940000
    reduced_to: 13
  - symbol: Li # 16
    coordinates: [  0.012714870421926,  0.544445257269321,  0.839516027694513 ]
    mass: 6.940000
    reduced_to: 13
  - symbol: Li # 17
    coordinates: [  0.346048203755259,  0.544445257269321,  0.839516027694513 ]
    mass: 6.940000
    reduced_to: 13
  - symbol: Li # 18
    coordinates: [  0.679381537088593,  0.544445257269321,  0.839516027694513 ]
    mass: 6.940000
    reduced_to: 13
  - symbol: Li # 19
    coordinates: [  0.177627720891501,  0.038985572968926,  0.315129006354292 ]
    mass: 6.940000
    reduced_to: 19
  - symbol: Li # 20
    coordinates: [  0.510961054224835,  0.038985572968926,  0.315129006354292 ]
    mass: 6.940000
    reduced_to: 19
  - symbol: Li # 21
    coordinates: [  0.844294387558168,  0.038985572968926,  0.315129006354292 ]
    mass: 6.940000
    reduced_to: 19
  - symbol: Li # 22
    coordinates: [  0.177627720891501,  0.538985572968926,  0.315129006354292 ]
    mass: 6.940000
    reduced_to: 19
  - symbol: Li # 23
    coordinates: [  0.510961054224835,  0.538985572968926,  0.315129006354292 ]
    mass: 6.940000
    reduced_to: 19
  - symbol: Li # 24
    coordinates: [  0.844294387558168,  0.538985572968926,  0.315129006354292 ]
    mass: 6.940000
    reduced_to: 19
  - symbol: Li # 25
    coordinates: [  0.235920231822081,  0.213937510078568,  0.833002594024230 ]
    mass: 6.940000
    reduced_to: 25
  - symbol: Li # 26
    coordinates: [  0.569253565155414,  0.213937510078568,  0.833002594024230 ]
    mass: 6.940000
    reduced_to: 25
  - symbol: Li # 27
    coordinates: [  0.902586898488748,  0.213937510078568,  0.833002594024230 ]
    mass: 6.940000
    reduced_to: 25
  - symbol: Li # 28
    coordinates: [  0.235920231822081,  0.713937510078568,  0.833002594024230 ]
    mass: 6.940000
    reduced_to: 25
  - symbol: Li # 29
    coordinates: [  0.569253565155414,  0.713937510078568,  0.833002594024230 ]
    mass: 6.940000
    reduced_to: 25
  - symbol: Li # 30
    coordinates: [  0.902586898488748,  0.713937510078568,  0.833002594024230 ]
    mass: 6.940000
    reduced_to: 25
  - symbol: Li # 31
    coordinates: [  0.125934951325492,  0.384095197083951,  0.504592289889803 ]
    mass: 6.940000
    reduced_to: 31
  - symbol: Li # 32
    coordinates: [  0.459268284658825,  0.384095197083951,  0.504592289889803 ]
    mass: 6.940000
    reduced_to: 31
  - symbol: Li # 33
    coordinates: [  0.792601617992158,  0.384095197083951,  0.504592289889803 ]
    mass: 6.940000
    reduced_to: 31
  - symbol: Li # 34
    coordinates: [  0.125934951325492,  0.884095197083951,  0.504592289889803 ]
    mass: 6.940000
    reduced_to: 31
  - symbol: Li # 35
    coordinates: [  0.459268284658825,  0.884095197083951,  0.504592289889803 ]
    mass: 6.940000
    reduced_to: 31
  - symbol: Li # 36
    coordinates: [  0.792601617992158,  0.884095197083951,  0.504592289889803 ]
    mass: 6.940000
    reduced_to: 31
  - symbol: Li # 37
    coordinates: [  0.068515628692480,  0.211545443655243,  0.323588971141935 ]
    mass: 6.940000
    reduced_to: 37
  - symbol: Li # 38
    coordinates: [  0.401848962025813,  0.211545443655243,  0.323588971141935 ]
    mass: 6.940000
    reduced_to: 37
  - symbol: Li # 39
    coordinates: [  0.735182295359147,  0.211545443655243,  0.323588971141935 ]
    mass: 6.940000
    reduced_to: 37
  - symbol: Li # 40
    coordinates: [  0.068515628692480,  0.711545443655243,  0.323588971141935 ]
    mass: 6.940000
    reduced_to: 37
  - symbol: Li # 41
    coordinates: [  0.401848962025813,  0.711545443655243,  0.323588971141935 ]
    mass: 6.940000
    reduced_to: 37
  - symbol: Li # 42
    coordinates: [  0.735182295359147,  0.711545443655243,  0.323588971141935 ]
    mass: 6.940000
    reduced_to: 37
  - symbol: Li # 43
    coordinates: [  0.293010688369423,  0.385316783404015,  0.670830747806054 ]
    mass: 6.940000
    reduced_to: 43
  - symbol: Li # 44
    coordinates: [  0.626344021702756,  0.385316783404015,  0.670830747806054 ]
    mass: 6.940000
    reduced_to: 43
  - symbol: Li # 45
    coordinates: [  0.959677355036090,  0.385316783404015,  0.670830747806054 ]
    mass: 6.940000
    reduced_to: 43
  - symbol: Li # 46
    coordinates: [  0.293010688369423,  0.885316783404015,  0.670830747806054 ]
    mass: 6.940000
    reduced_to: 43
  - symbol: Li # 47
    coordinates: [  0.626344021702756,  0.885316783404015,  0.670830747806054 ]
    mass: 6.940000
    reduced_to: 43
  - symbol: Li # 48
    coordinates: [  0.959677355036090,  0.885316783404015,  0.670830747806054 ]
    mass: 6.940000
    reduced_to: 43
  - symbol: Li # 49
    coordinates: [  0.068918585144417,  0.212731405316507,  0.010698486481158 ]
    mass: 6.940000
    reduced_to: 49
  - symbol: Li # 50
    coordinates: [  0.402251918477750,  0.212731405316507,  0.010698486481158 ]
    mass: 6.940000
    reduced_to: 49
  - symbol: Li # 51
    coordinates: [  0.735585251811084,  0.212731405316507,  0.010698486481158 ]
    mass: 6.940000
    reduced_to: 49
  - symbol: Li # 52
    coordinates: [  0.068918585144417,  0.712731405316507,  0.010698486481158 ]
    mass: 6.940000
    reduced_to: 49
  - symbol: Li # 53
    coordinates: [  0.402251918477750,  0.712731405316507,  0.010698486481158 ]
    mass: 6.940000
    reduced_to: 49
  - symbol: Li # 54
    coordinates: [  0.735585251811084,  0.712731405316507,  0.010698486481158 ]
    mass: 6.940000
    reduced_to: 49
  - symbol: Li # 55
    coordinates: [  0.233939517968130,  0.207809032116989,  0.499523272897363 ]
    mass: 6.940000
    reduced_to: 55
  - symbol: Li # 56
    coordinates: [  0.567272851301463,  0.207809032116989,  0.499523272897363 ]
    mass: 6.940000
    reduced_to: 55
  - symbol: Li # 57
    coordinates: [  0.900606184634796,  0.207809032116989,  0.499523272897363 ]
    mass: 6.940000
    reduced_to: 55
  - symbol: Li # 58
    coordinates: [  0.233939517968130,  0.707809032116989,  0.499523272897363 ]
    mass: 6.940000
    reduced_to: 55
  - symbol: Li # 59
    coordinates: [  0.567272851301463,  0.707809032116989,  0.499523272897363 ]
    mass: 6.940000
    reduced_to: 55
  - symbol: Li # 60
    coordinates: [  0.900606184634796,  0.707809032116989,  0.499523272897363 ]
    mass: 6.940000
    reduced_to: 55
  - symbol: Ga # 61
    coordinates: [  0.180567428917492,  0.047999789142964,  0.667516596612162 ]
    mass: 69.723000
    reduced_to: 61
  - symbol: Ga # 62
    coordinates: [  0.513900762250826,  0.047999789142964,  0.667516596612162 ]
    mass: 69.723000
    reduced_to: 61
  - symbol: Ga # 63
    coordinates: [  0.847234095584159,  0.047999789142964,  0.667516596612162 ]
    mass: 69.723000
    reduced_to: 61
  - symbol: Ga # 64
    coordinates: [  0.180567428917492,  0.547999789142964,  0.667516596612162 ]
    mass: 69.723000
    reduced_to: 61
  - symbol: Ga # 65
    coordinates: [  0.513900762250826,  0.547999789142964,  0.667516596612162 ]
    mass: 69.723000
    reduced_to: 61
  - symbol: Ga # 66
    coordinates: [  0.847234095584159,  0.547999789142964,  0.667516596612162 ]
    mass: 69.723000
    reduced_to: 61
  - symbol: Ga # 67
    coordinates: [  0.237428437541234,  0.218224073718273,  0.165832612211419 ]
    mass: 69.723000
    reduced_to: 67
  - symbol: Ga # 68
    coordinates: [  0.570761770874568,  0.218224073718273,  0.165832612211419 ]
    mass: 69.723000
    reduced_to: 67
  - symbol: Ga # 69
    coordinates: [  0.904095104207901,  0.218224073718273,  0.165832612211419 ]
    mass: 69.723000
    reduced_to: 67
  - symbol: Ga # 70
    coordinates: [  0.237428437541234,  0.718224073718273,  0.165832612211419 ]
    mass: 69.723000
    reduced_to: 67
  - symbol: Ga # 71
    coordinates: [  0.570761770874568,  0.718224073718273,  0.165832612211419 ]
    mass: 69.723000
    reduced_to: 67
  - symbol: Ga # 72
    coordinates: [  0.904095104207901,  0.718224073718273,  0.165832612211419 ]
    mass: 69.723000
    reduced_to: 67
  - symbol: Ga # 73
    coordinates: [  0.119865059812332,  0.365574206015519,  0.163611388753838 ]
    mass: 69.723000
    reduced_to: 73
  - symbol: Ga # 74
    coordinates: [  0.453198393145665,  0.365574206015519,  0.163611388753838 ]
    mass: 69.723000
    reduced_to: 73
  - symbol: Ga # 75
    coordinates: [  0.786531726478998,  0.365574206015519,  0.163611388753838 ]
    mass: 69.723000
    reduced_to: 73
  - symbol: Ga # 76
    coordinates: [  0.119865059812332,  0.865574206015519,  0.163611388753838 ]
    mass: 69.723000
    reduced_to: 73
  - symbol: Ga # 77
    coordinates: [  0.453198393145665,  0.865574206015519,  0.163611388753838 ]
    mass: 69.723000
    reduced_to: 73
  - symbol: Ga # 78
    coordinates: [  0.786531726478998,  0.865574206015519,  0.163611388753838 ]
    mass: 69.723000
    reduced_to: 73
  - symbol: Sn # 79
    coordinates: [  0.288312567011700,  0.371076617189769,  0.329677362127794 ]
    mass: 118.710000
    reduced_to: 79
  - symbol: Sn # 80
    coordinates: [  0.621645900345033,  0.371076617189769,  0.329677362127794 ]
    mass: 118.710000
    reduced_to: 79
  - symbol: Sn # 81
    coordinates: [  0.954979233678366,  0.371076617189769,  0.329677362127794 ]
    mass: 118.710000
    reduced_to: 79
  - symbol: Sn # 82
    coordinates: [  0.288312567011700,  0.871076617189769,  0.329677362127794 ]
    mass: 118.710000
    reduced_to: 79
  - symbol: Sn # 83
    coordinates: [  0.621645900345033,  0.871076617189769,  0.329677362127794 ]
    mass: 118.710000
    reduced_to: 79
  - symbol: Sn # 84
    coordinates: [  0.954979233678366,  0.871076617189769,  0.329677362127794 ]
    mass: 118.710000
    reduced_to: 79
  - symbol: Sn # 85
    coordinates: [  0.124729128852333,  0.380449604682440,  0.831713144501505 ]
    mass: 118.710000
    reduced_to: 85
  - symbol: Sn # 86
    coordinates: [  0.458062462185667,  0.380449604682440,  0.831713144501505 ]
    mass: 118.710000
    reduced_to: 85
  - symbol: Sn # 87
    coordinates: [  0.791395795519000,  0.380449604682440,  0.831713144501505 ]
    mass: 118.710000
    reduced_to: 85
  - symbol: Sn # 88
    coordinates: [  0.124729128852333,  0.880449604682440,  0.831713144501505 ]
    mass: 118.710000
    reduced_to: 85
  - symbol: Sn # 89
    coordinates: [  0.458062462185667,  0.880449604682440,  0.831713144501505 ]
    mass: 118.710000
    reduced_to: 85
  - symbol: Sn # 90
    coordinates: [  0.791395795519000,  0.880449604682440,  0.831713144501505 ]
    mass: 118.710000
    reduced_to: 85
  - symbol: Sn # 91
    coordinates: [  0.067624197792909,  0.209161880597493,  0.668013028739551 ]
    mass: 118.710000
    reduced_to: 91
  - symbol: Sn # 92
    coordinates: [  0.400957531126242,  0.209161880597493,  0.668013028739551 ]
    mass: 118.710000
    reduced_to: 91
  - symbol: Sn # 93
    coordinates: [  0.734290864459575,  0.209161880597493,  0.668013028739551 ]
    mass: 118.710000
    reduced_to: 91
  - symbol: Sn # 94
    coordinates: [  0.067624197792909,  0.709161880597493,  0.668013028739551 ]
    mass: 118.710000
    reduced_to: 91
  - symbol: Sn # 95
    coordinates: [  0.400957531126242,  0.709161880597493,  0.668013028739551 ]
    mass: 118.710000
    reduced_to: 91
  - symbol: Sn # 96
    coordinates: [  0.734290864459575,  0.709161880597493,  0.668013028739551 ]
    mass: 118.710000
    reduced_to: 91
  - symbol: Sn # 97
    coordinates: [  0.181671433972707,  0.051131698264267,  0.015467693573248 ]
    mass: 118.710000
    reduced_to: 97
  - symbol: Sn # 98
    coordinates: [  0.515004767306040,  0.051131698264267,  0.015467693573248 ]
    mass: 118.710000
    reduced_to: 97
  - symbol: Sn # 99
    coordinates: [  0.848338100639374,  0.051131698264267,  0.015467693573248 ]
    mass: 118.710000
    reduced_to: 97
  - symbol: Sn # 100
    coordinates: [  0.181671433972707,  0.551131698264267,  0.015467693573248 ]
    mass: 118.710000
    reduced_to: 97
  - symbol: Sn # 101
    coordinates: [  0.515004767306040,  0.551131698264267,  0.015467693573248 ]
    mass: 118.710000
    reduced_to: 97
  - symbol: Sn # 102
    coordinates: [  0.848338100639374,  0.551131698264267,  0.015467693573248 ]
    mass: 118.710000
    reduced_to: 97
  - symbol: Sn # 103
    coordinates: [  0.012495907925594,  0.043690359569583,  0.490062076150252 ]
    mass: 118.710000
    reduced_to: 103
  - symbol: Sn # 104
    coordinates: [  0.345829241258927,  0.043690359569583,  0.490062076150252 ]
    mass: 118.710000
    reduced_to: 103
  - symbol: Sn # 105
    coordinates: [  0.679162574592260,  0.043690359569583,  0.490062076150252 ]
    mass: 118.710000
    reduced_to: 103
  - symbol: Sn # 106
    coordinates: [  0.012495907925594,  0.543690359569583,  0.490062076150252 ]
    mass: 118.710000
    reduced_to: 103
  - symbol: Sn # 107
    coordinates: [  0.345829241258927,  0.543690359569583,  0.490062076150252 ]
    mass: 118.710000
    reduced_to: 103
  - symbol: Sn # 108
    coordinates: [  0.679162574592260,  0.543690359569583,  0.490062076150252 ]
    mass: 118.710000
    reduced_to: 103

displacements:
- atom:    1
  displacement:
    [   0.0100000000000000,  0.0000000000000000,  0.0000000000000000 ]
  forces:
  - [  -0.0150044942274690, -0.0019208844751120, -0.1274763941764832 ]
  - [   0.0002706656232476, -0.0019196532666683, -0.1273511946201324 ]
  - [   0.0002812156453729, -0.0018084067851305, -0.1276846677064896 ]
  - [   0.0001470473071095, -0.0019265189766884, -0.1275399327278137 ]
  - [   0.0001720423460938, -0.0018233526498079, -0.1274973005056381 ]
  - [   0.0001718920248095, -0.0018363725394011, -0.1275136768817902 ]
  - [  -0.0006669794674963,  0.0900681167840958, -0.0532902777194977 ]
  - [  -0.0006646849215031,  0.0900817289948463, -0.0534887723624706 ]
  - [  -0.0007291333749890,  0.0900593400001526, -0.0533932782709599 ]
  - [  -0.0008154091192409,  0.0899761542677879, -0.0533060729503632 ]
  - [  -0.0006646982510574,  0.0900662094354630, -0.0533949285745621 ]
  - [  -0.0008115575183183,  0.0901688486337662, -0.0534776262938976 ]
  - [   0.0004899528576061, -0.0242793262004852,  0.1021685972809792 ]
  - [   0.0004952812450938, -0.0242911502718925,  0.1021720841526985 ]
  - [   0.0004876135499217, -0.0242930594831705,  0.1021743118762970 ]
  - [   0.0004386976652313, -0.0243586339056492,  0.1021425798535347 ]
  - [   0.0000753307103878, -0.0242923870682716,  0.1021790206432343 ]
  - [   0.0004393769777380, -0.0242127794772387,  0.1021989285945892 ]
  - [   0.0002309456467628,  0.0466645881533623,  0.1414482593536377 ]
  - [   0.0002057086676359,  0.0466869324445724,  0.1414165496826172 ]
  - [   0.0002130102366209,  0.0466469898819923,  0.1414758712053299 ]
  - [   0.0001871054992080,  0.0467523112893105,  0.1414341926574707 ]
  - [   0.0001861825585365,  0.0465837866067886,  0.1414622664451599 ]
  - [   0.0002247365191579,  0.0466672256588936,  0.1414469778537750 ]
  - [  -0.0003803673316725,  0.0682394653558731,  0.0313692614436150 ]
  - [  -0.0006109137320891,  0.0683207139372826,  0.0313058421015739 ]
  - [  -0.0006101849721745,  0.0681477934122086,  0.0314217656850815 ]
  - [  -0.0004077438497916,  0.0681066960096359,  0.0313509330153465 ]
  - [  -0.0004035167512484,  0.0683601051568985,  0.0313750952482224 ]
  - [  -0.0004546156269498,  0.0682319328188896,  0.0313612893223763 ]
  - [   0.0009164162911475, -0.0351381972432137, -0.0700297355651855 ]
  - [   0.0009167091920972, -0.0351788774132729, -0.0699771568179131 ]
  - [   0.0008619036525488, -0.0351586341857910, -0.0700028091669083 ]
  - [   0.0008942789281718, -0.0351563915610313, -0.0700099095702171 ]
  - [   0.0008982716826722, -0.0351616367697716, -0.0700018256902695 ]
  - [   0.0009023843449540, -0.0351579412817955, -0.0699950084090233 ]
  - [  -0.0006893174722791, -0.0564044453203678,  0.0323852188885212 ]
  - [  -0.0006930370582268, -0.0564384199678898,  0.0327302441000938 ]
  - [  -0.0006163298385218, -0.0564212799072266,  0.0325602814555168 ]
  - [  -0.0007017467287369, -0.0564053095877171,  0.0325678698718548 ]
  - [  -0.0006696556229144, -0.0564169734716415,  0.0325578898191452 ]
  - [  -0.0007048990228213, -0.0564379021525383,  0.0325539521872997 ]
  - [   0.0003562499477994, -0.0972894206643105,  0.0614379644393921 ]
  - [  -0.0002600026491564, -0.0972933173179626,  0.0615798160433769 ]
  - [  -0.0002600258449093, -0.0972880795598030,  0.0612918362021446 ]
  - [   0.0000087470252765, -0.0972724333405495,  0.0614389255642891 ]
  - [   0.0000051412571338, -0.0972914621233940,  0.0614316612482071 ]
  - [  -0.0000094250954135, -0.0973060876131058,  0.0614338889718056 ]
  - [   0.0008277251617983,  0.0248671621084213, -0.0585911460220814 ]
  - [   0.0008482465636916,  0.0218042749911547, -0.0580815635621548 ]
  - [  -0.0008255519787781,  0.0233489871025085, -0.0583380125463009 ]
  - [  -0.0011329464614391,  0.0235202386975288, -0.0583465397357941 ]
  - [  -0.0005701547488570,  0.0233452171087265, -0.0583396144211292 ]
  - [  -0.0011388044804335,  0.0231726989150047, -0.0583283081650734 ]
  - [  -0.0014030407182872, -0.0574222654104233,  0.0653164982795715 ]
  - [  -0.0014342471258715, -0.0574160888791084,  0.0653616487979889 ]
  - [  -0.0014356868341565, -0.0574270114302635,  0.0652697756886482 ]
  - [  -0.0014192648231983, -0.0574741587042809,  0.0653929039835930 ]
  - [  -0.0014194352552295, -0.0573696717619896,  0.0652359575033188 ]
  - [  -0.0014352155849338, -0.0574206076562405,  0.0653166323900223 ]
  - [  -0.0000988505780697,  0.0130230188369751, -0.0090915374457836 ]
  - [  -0.0001968394499272,  0.0130556952208281, -0.0090931933373213 ]
  - [  -0.0002010719617829,  0.0129877645522356, -0.0090901209041476 ]
  - [  -0.0001276996918023,  0.0130227878689766, -0.0089688925072551 ]
  - [  -0.0001278701238334,  0.0130184181034565, -0.0092112934216857 ]
  - [  -0.0001590433530509,  0.0130227673798800, -0.0090917618945241 ]
  - [  -0.0004607721930370, -0.0595819279551506,  0.0101866498589516 ]
  - [  -0.0002114225062542, -0.0595739334821701,  0.0101519171148539 ]
  - [  -0.0002166083140764, -0.0596263855695724,  0.0102501902729273 ]
  - [  -0.0003123345377389, -0.0597058534622192,  0.0100539848208427 ]
  - [  -0.0003126305527985, -0.0594943314790726,  0.0103465653955936 ]
  - [  -0.0001636074157432, -0.0596000589430332,  0.0101992394775152 ]
  - [   0.0011950612533838,  0.0783331543207169, -0.0996219366788864 ]
  - [   0.0012244798708707,  0.0776001811027527, -0.0959177315235138 ]
  - [  -0.0003989083052147,  0.0779649764299393, -0.0977905541658401 ]
  - [  -0.0005642066244036,  0.0780089199542999, -0.0977830737829208 ]
  - [  -0.0004200970870443,  0.0779454857110977, -0.0977736711502075 ]
  - [  -0.0005721427733079,  0.0779453441500664, -0.0978122204542160 ]
  - [   0.0009556434815750, -0.0379227660596371,  0.0186388976871967 ]
  - [   0.0002655957359821, -0.0379395149648190,  0.0182603150606155 ]
  - [   0.0002688676468097, -0.0379069671034813,  0.0190125443041325 ]
  - [   0.0007031605928205, -0.0379241555929184,  0.0186293683946133 ]
  - [   0.0007074991590343, -0.0379368178546429,  0.0186366178095341 ]
  - [   0.0007194267818704, -0.0379045866429806,  0.0186477303504944 ]
  - [   0.0026598128024489,  0.0320693776011467,  0.0600265264511108 ]
  - [   0.0027213501743972,  0.0311034843325615,  0.0560591816902161 ]
  - [   0.0004670406342484,  0.0315816998481750,  0.0580774173140526 ]
  - [   0.0004753734101541,  0.0315755158662796,  0.0580705851316452 ]
  - [   0.0005121716530994,  0.0315551161766052,  0.0580458492040634 ]
  - [   0.0004708428750746,  0.0316148996353149,  0.0581158623099327 ]
  - [   0.0007363162003458, -0.0030463933944702, -0.0310910865664482 ]
  - [   0.0007314041722566, -0.0040295794606209, -0.0316332951188087 ]
  - [   0.0008853054023348, -0.0035368055105209, -0.0313629657030106 ]
  - [   0.0007683558505960, -0.0034902617335320, -0.0314068943262100 ]
  - [   0.0009715005871840, -0.0035342201590538, -0.0313562788069248 ]
  - [   0.0007669938495383, -0.0035867914557457, -0.0313195809721947 ]
  - [   0.0007010847330093,  0.0143594592809677,  0.0065802708268166 ]
  - [   0.0006779450923204,  0.0144847035408020,  0.0066613405942917 ]
  - [   0.0006709061563015,  0.0142043009400368,  0.0064940601587296 ]
  - [   0.0036210268735886,  0.0109843388199806,  0.0065339878201485 ]
  - [   0.0036853160709143,  0.0177979916334152,  0.0066188275814056 ]
  - [   0.0008378569036722,  0.0143492966890335,  0.0065773501992226 ]
  - [   0.0005052108317614,  0.0082144588232040, -0.0803452283143997 ]
  - [   0.0005028210580349,  0.0082980804145336, -0.0802514851093292 ]
  - [   0.0005081947892904,  0.0082654692232609, -0.0802884548902512 ]
  - [   0.0004524490213953,  0.0081744901835918, -0.0803988352417946 ]
  - [   0.0006135799922049,  0.0082580856978893, -0.0802954807877541 ]
  - [   0.0004517895868048,  0.0083438009023666, -0.0801907181739807 ]
- atom:    1
  displacement:
    [  -0.0100000000000000,  0.0000000000000000,  0.0000000000000000 ]
  forces:
  - [   0.0153312711045146, -0.0019131340086460, -0.1275033652782440 ]
  - [   0.0000453228130937, -0.0018084272742271, -0.1276845932006836 ]
  - [   0.0000560702756047, -0.0019193384796381, -0.1273518651723862 ]
  - [   0.0001800103345886, -0.0017975531518459, -0.1274943053722382 ]
  - [   0.0001556065544719, -0.0019002258777618, -0.1275366693735123 ]
  - [   0.0001555994822411, -0.0018885284662247, -0.1275199800729752 ]
  - [  -0.0007838343735784,  0.0900716334581375, -0.0534920506179333 ]
  - [  -0.0007834752323106,  0.0900576189160347, -0.0532936155796051 ]
  - [  -0.0007207849994302,  0.0900799408555031, -0.0533869154751301 ]
  - [  -0.0006374313961715,  0.0901692286133766, -0.0534771271049976 ]
  - [  -0.0007850167457946,  0.0900664329528809, -0.0533956140279770 ]
  - [  -0.0006329490570351,  0.0899751484394073, -0.0533055402338505 ]
  - [   0.0004637432284653, -0.0242968834936619,  0.1021751612424850 ]