# Thermal properties / unit cell (natom)

unit:
  temperature:   K
  free_energy:   kJ/mol
  entropy:       J/K/mol
  heat_capacity: J/K/mol

natom: 14   
cutoff_frequency: 0.00000
num_modes: 231336
num_integrated_modes: 231334

zero_point_energy:      57.2343862

thermal_properties:
- temperature:         0.0000000
  free_energy:        57.2343862
  entropy:             0.0000000
  heat_capacity:       0.0000000
  energy:             57.2343862

- temperature:        10.0000000
  free_energy:        57.2329340
  entropy:             0.5578232
  heat_capacity:       1.7990546
  energy:             57.2385122

- temperature:        20.0000000
  free_energy:        57.2099367
  entropy:             4.9268252
  heat_capacity:      13.9430180
  energy:             57.3084732

- temperature:        30.0000000
  free_energy:        57.1190755
  entropy:            13.8157322
  heat_capacity:      31.2392923
  energy:             57.5335474

- temperature:        40.0000000
  free_energy:        56.9254507
  entropy:            25.2041782
  heat_capacity:      48.8041380
  energy:             57.9336178

- temperature:        50.0000000
  free_energy:        56.6102783
  entropy:            38.0283262
  heat_capacity:      66.9722687
  energy:             58.5116946

- temperature:        60.0000000
  free_energy:        56.1613386
  entropy:            51.9207019
  heat_capacity:      86.1683118
  energy:             59.2765807

- temperature:        70.0000000
  free_energy:        55.5689275
  entropy:            66.6937992
  heat_capacity:     106.0829915
  energy:             60.2374934

- temperature:        80.0000000
  free_energy:        54.8251291
  entropy:            82.1662833
  heat_capacity:     126.0561554
  energy:             61.3984318

- temperature:        90.0000000
  free_energy:        53.9239281
  entropy:            98.1409436
  heat_capacity:     145.4344728
  energy:             62.7566131

- temperature:       100.0000000
  free_energy:        52.8612908
  entropy:           114.4221369
  heat_capacity:     163.7345455
  energy:             64.3035045

- temperature:       110.0000000
  free_energy:        51.6350548
  entropy:           130.8334833
  heat_capacity:     180.6703271
  energy:             66.0267380

- temperature:       120.0000000
  free_energy:        50.2446834
  entropy:           147.2271646
  heat_capacity:     196.1195756
  energy:             67.9119432

- temperature:       130.0000000
  free_energy:        48.6909642
  entropy:           163.4859904
  heat_capacity:     210.0752122
  energy:             69.9441430

- temperature:       140.0000000
  free_energy:        46.9757117
  entropy:           179.5212005
  heat_capacity:     222.6018212
  energy:             72.1086798

- temperature:       150.0000000
  free_energy:        45.1015025
  entropy:           195.2683826
  heat_capacity:     233.8031165
  energy:             74.3917599

- temperature:       160.0000000
  free_energy:        43.0714545
  entropy:           210.6829533
  heat_capacity:     243.7999757
  energy:             76.7807270

- temperature:       170.0000000
  free_energy:        40.8890501
  entropy:           225.7359381
  heat_capacity:     252.7167029
  energy:             79.2641595

- temperature:       180.0000000
  free_energy:        38.5579987
  entropy:           240.4103456
  heat_capacity:     260.6730639
  energy:             81.8318609

- temperature:       190.0000000
  free_energy:        36.0821324
  entropy:           254.6982030
  heat_capacity:     267.7801116
  energy:             84.4747910

- temperature:       200.0000000
  free_energy:        33.4653280
  entropy:           268.5982020
  heat_capacity:     274.1383801
  energy:             87.1849684

- temperature:       210.0000000
  free_energy:        30.7114498
  entropy:           282.1138700
  heat_capacity:     279.8374858
  energy:             89.9553625

- temperature:       220.0000000
  free_energy:        27.8243088
  entropy:           295.2521675
  heat_capacity:     284.9565159
  energy:             92.7797856

- temperature:       230.0000000
  free_energy:        24.8076334
  entropy:           308.0224259
  heat_capacity:     289.5648210
  energy:             95.6527914

- temperature:       240.0000000
  free_energy:        21.6650508
  entropy:           320.4355483
  heat_capacity:     293.7229760
  energy:             98.5695824

- temperature:       250.0000000
  free_energy:        18.4000734
  entropy:           332.5034151
  heat_capacity:     297.4837768
  energy:            101.5259272

- temperature:       260.0000000
  free_energy:        15.0160920
  entropy:           344.2384436
  heat_capacity:     300.8931978
  energy:            104.5180873

- temperature:       270.0000000
  free_energy:        11.5163719
  entropy:           355.6532667
  heat_capacity:     303.9912736
  energy:            107.5427539

- temperature:       280.0000000
  free_energy:         7.9040519
  entropy:           366.7604994
  heat_capacity:     306.8128890
  energy:            110.5969918

- temperature:       290.0000000
  free_energy:         4.1821457
  entropy:           377.5725734
  heat_capacity:     309.3884768
  energy:            113.6781920

- temperature:       300.0000000
  free_energy:         0.3535438
  entropy:           388.1016212
  heat_capacity:     311.7446252
  energy:            116.7840302

- temperature:       310.0000000
  free_energy:        -3.5789825
  entropy:           398.3593982
  heat_capacity:     313.9046038
  energy:            119.9124309

- temperature:       320.0000000
  free_energy:        -7.6127777
  entropy:           408.3572324
  heat_capacity:     315.8888169
  energy:            123.0615367

- temperature:       330.0000000
  free_energy:       -11.7452970
  entropy:           418.1059950
  heat_capacity:     317.7151929
  energy:            126.2296814

- temperature:       340.0000000
  free_energy:       -15.9741021
  entropy:           427.6160862
  heat_capacity:     319.3995176
  energy:            129.4153672

- temperature:       350.0000000
  free_energy:       -20.2968563
  entropy:           436.8974317
  heat_capacity:     320.9557207
  energy:            132.6172448

- temperature:       360.0000000
  free_energy:       -24.7113198
  entropy:           445.9594877
  heat_capacity:     322.3961203
  energy:            135.8340958

- temperature:       370.0000000
  free_energy:       -29.2153451
  entropy:           454.8112510
  heat_capacity:     323.7316337
  energy:            139.0648177

- temperature:       380.0000000
  free_energy:       -33.8068724
  entropy:           463.4612728
  heat_capacity:     324.9719570
  energy:            142.3084113

- temperature:       390.0000000
  free_energy:       -38.4839252
  entropy:           471.9176761
  heat_capacity:     326.1257209
  energy:            145.5639685

- temperature:       400.0000000
  free_energy:       -43.2446063
  entropy:           480.1881730
  heat_capacity:     327.2006233
  energy:            148.8306629

- temperature:       410.0000000
  free_energy:       -48.0870934
  entropy:           488.2800841
  heat_capacity:     328.2035450
  energy:            152.1077411

- temperature:       420.0000000
  free_energy:       -53.0096359
  entropy:           496.2003580
  heat_capacity:     329.1406484
  energy:            155.3945145

- temperature:       430.0000000
  free_energy:       -58.0105505
  entropy:           503.9555898
  heat_capacity:     330.0174639
  energy:            158.6903531

- temperature:       440.0000000
  free_energy:       -63.0882184
  entropy:           511.5520406
  heat_capacity:     330.8389643
  energy:            161.9946794

- temperature:       450.0000000
  free_energy:       -68.2410819
  entropy:           518.9956553
  heat_capacity:     331.6096294
  energy:            165.3069630

- temperature:       460.0000000
  free_energy:       -73.4676409
  entropy:           526.2920805
  heat_capacity:     332.3335024
  energy:            168.6267161

- temperature:       470.0000000
  free_energy:       -78.7664508
  entropy:           533.4466810
  heat_capacity:     333.0142389
  energy:            171.9534893

- temperature:       480.0000000
  free_energy:       -84.1361188
  entropy:           540.4645562
  heat_capacity:     333.6551501
  energy:            175.2868681

- temperature:       490.0000000
  free_energy:       -89.5753023
  entropy:           547.3505550
  heat_capacity:     334.2592403
  energy:            178.6264696

- temperature:       500.0000000
  free_energy:       -95.0827058
  entropy:           554.1092902
  heat_capacity:     334.8292397
  energy:            181.9719393

- temperature:       510.0000000
  free_energy:      -100.6570786
  entropy:           560.7451523
  heat_capacity:     335.3676334
  energy:            185.3229491

- temperature:       520.0000000
  free_energy:      -106.2972132
  entropy:           567.2623220
  heat_capacity:     335.8766873
  energy:            188.6791942

- temperature:       530.0000000
  free_energy:      -112.0019427
  entropy:           573.6647823
  heat_capacity:     336.3584704
  energy:            192.0403919

- temperature:       540.0000000
  free_energy:      -117.7701391
  entropy:           579.9563300
  heat_capacity:     336.8148743
  energy:            195.4062791

- temperature:       550.0000000
  free_energy:      -123.6007117
  entropy:           586.1405860
  heat_capacity:     337.2476317
  energy:            198.7766106

- temperature:       560.0000000
  free_energy:      -129.4926048
  entropy:           592.2210052
  heat_capacity:     337.6583313
  energy:            202.1511582

- temperature:       570.0000000
  free_energy:      -135.4447967
  entropy:           598.2008864
  heat_capacity:     338.0484321
  energy:            205.5297086

- temperature:       580.0000000
  free_energy:      -141.4562979
  entropy:           604.0833802
  heat_capacity:     338.4192756
  energy:            208.9120627

- temperature:       590.0000000
  free_energy:      -147.5261497
  entropy:           609.8714979
  heat_capacity:     338.7720970
  energy:            212.2980340

- temperature:       600.0000000
  free_energy:      -153.6534229
  entropy:           615.5681186
  heat_capacity:     339.1080350
  energy:            215.6874483

- temperature:       610.0000000
  free_energy:      -159.8372163
  entropy:           621.1759971
  heat_capacity:     339.4281404
  energy:            219.0801420

- temperature:       620.0000000
  free_energy:      -166.0766558
  entropy:           626.6977700
  heat_capacity:     339.7333843
  energy:            222.4759616

- temperature:       630.0000000
  free_energy:      -172.3708931
  entropy:           632.1359622
  heat_capacity:     340.0246653
  energy:            225.8747631

- temperature:       640.0000000
  free_energy:      -178.7191045
  entropy:           637.4929932
  heat_capacity:     340.3028155
  energy:            229.2764111

- temperature:       650.0000000
  free_energy:      -185.1204901
  entropy:           642.7711821
  heat_capacity:     340.5686063
  energy:            232.6807782

- temperature:       660.0000000
  free_energy:      -191.5742728
  entropy:           647.9727534
  heat_capacity:     340.8227540
  energy:            236.0877445

- temperature:       670.0000000
  free_energy:      -198.0796969
  entropy:           653.0998413
  heat_capacity:     341.0659238
  energy:            239.4971967

- temperature:       680.0000000
  free_energy:      -204.6360282
  entropy:           658.1544950
  heat_capacity:     341.2987347
  energy:            242.9090284

- temperature:       690.0000000
  free_energy:      -211.2425520
  entropy:           663.1386823
  heat_capacity:     341.5217628
  energy:            246.3231388

- temperature:       700.0000000
  free_energy:      -217.8985732
  entropy:           668.0542944
  heat_capacity:     341.7355451
  energy:            249.7394329

- temperature:       710.0000000
  free_energy:      -224.6034153
  entropy:           672.9031492
  heat_capacity:     341.9405824
  energy:            253.1578206

- temperature:       720.0000000
  free_energy:      -231.3564195
  entropy:           677.6869951
  heat_capacity:     342.1373423
  energy:            256.5782169

- temperature:       730.0000000
  free_energy:      -238.1569442
  entropy:           682.4075143
  heat_capacity:     342.3262618
  energy:            260.0005413

- temperature:       740.0000000
  free_energy:      -245.0043641
  entropy:           687.0663264
  heat_capacity:     342.5077494
  energy:            263.4247174

- temperature:       750.0000000
  free_energy:      -251.8980702
  entropy:           691.6649906
  heat_capacity:     342.6821879
  energy:            266.8506728

- temperature:       760.0000000
  free_energy:      -258.8374685
  entropy:           696.2050096
  heat_capacity:     342.8499355
  energy:            270.2783388

- temperature:       770.0000000
  free_energy:      -265.8219797
  entropy:           700.6878312
  heat_capacity:     343.0113282
  energy:            273.7076503

- temperature:       780.0000000
  free_energy:      -272.8510391
  entropy:           705.1148517
  heat_capacity:     343.1666814
  energy:            277.1385453

- temperature:       790.0000000
  free_energy:      -279.9240953
  entropy:           709.4874178
  heat_capacity:     343.3162912
  energy:            280.5709648

- temperature:       800.0000000
  free_energy:      -287.0406103
  entropy:           713.8068289
  heat_capacity:     343.4604358
  energy:            284.0048529

- temperature:       810.0000000
  free_energy:      -294.2000588
  entropy:           718.0743395
  heat_capacity:     343.5993769
  energy:            287.4401562

- temperature:       820.0000000
  free_energy:      -301.4019281
  entropy:           722.2911610
  heat_capacity:     343.7333607
  energy:            290.8768239

- temperature:       830.0000000
  free_energy:      -308.6457170
  entropy:           726.4584634
  heat_capacity:     343.8626193
  energy:            294.3148076

- temperature:       840.0000000
  free_energy:      -315.9309361
  entropy:           730.5773778
  heat_capacity:     343.9873713
  energy:            297.7540613

- temperature:       850.0000000
  free_energy:      -323.2571069
  entropy:           734.6489972
  heat_capacity:     344.1078228
  energy:            301.1945407

- temperature:       860.0000000
  free_energy:      -330.6237619
  entropy:           738.6743790
  heat_capacity:     344.2241684
  energy:            304.6362040

- temperature:       870.0000000
  free_energy:      -338.0304438
  entropy:           742.6545458
  heat_capacity:     344.3365918
  energy:            308.0790110

- temperature:       880.0000000
  free_energy:      -345.4767054
  entropy:           746.5904872
  heat_capacity:     344.4452667
  energy:            311.5229234

- temperature:       890.0000000
  free_energy:      -352.9621093
  entropy:           750.4831615
  heat_capacity:     344.5503571
  energy:            314.9679044

- temperature:       900.0000000
  free_energy:      -360.4862275
  entropy:           754.3334962
  heat_capacity:     344.6520184
  energy:            318.4139191

- temperature:       910.0000000
  free_energy:      -368.0486411
  entropy:           758.1423900
  heat_capacity:     344.7503976
  energy:            321.8609338

- temperature:       920.0000000
  free_energy:      -375.6489401
  entropy:           761.9107137
  heat_capacity:     344.8456340
  energy:            325.3089166

- temperature:       930.0000000
  free_energy:      -383.2867230
  entropy:           765.6393112
  heat_capacity:     344.9378595
  energy:            328.7578365

- temperature:       940.0000000
  free_energy:      -390.9615966
  entropy:           769.3290008
  heat_capacity:     345.0271992
  energy:            332.2076641

- temperature:       950.0000000
  free_energy:      -398.6731759
  entropy:           772.9805760
  heat_capacity:     345.1137719
  energy:            335.6583713

- temperature:       960.0000000
  free_energy:      -406.4210836
  entropy:           776.5948066
  heat_capacity:     345.1976903
  energy:            339.1099307

- temperature:       970.0000000
  free_energy:      -414.2049501
  entropy:           780.1724398
  heat_capacity:     345.2790615
  energy:            342.5623166

- temperature:       980.0000000
  free_energy:      -422.0244129
  entropy:           783.7142007
  heat_capacity:     345.3579870
  energy:            346.0155038

- temperature:       990.0000000
  free_energy:      -429.8791169
  entropy:           787.2207933
  heat_capacity:     345.4345638
  energy:            349.4694685

- temperature:      1000.0000000
  free_energy:      -437.7687138
  entropy:           790.6929013
  heat_capacity:     345.5088836
  energy:            352.9241876
