phonopy:
  version: "2.37.1"
  frequency_unit_conversion_factor: 15.633302
  symmetry_tolerance: 1.00000e-05

space_group:
  type: "P6/mmm"
  number: 191
  Hall_symbol: "-P 6 2"

primitive_matrix:
- [  1.000000000000000,  0.000000000000000, -0.000000000000000 ]
- [  0.000000000000000,  1.000000000000000, -0.000000000000000 ]
- [  0.000000000000000,  0.000000000000000,  1.000000000000000 ]

supercell_matrix:
- [   3,   0,   0 ]
- [   0,   3,   0 ]
- [   0,   0,   4 ]

primitive_cell:
  lattice:
  - [     4.928666799220673,     0.000000000000000,     0.000000000000000 ] # a
  - [    -2.464333336707092,     4.268350609135998,     0.000000000000000 ] # b
  - [    -0.000000001057624,     0.000000000935823,     2.892494027663140 ] # c
  points:
  - symbol: Li # 1
    coordinates: [  0.000000000672762,  0.999999999609358,  0.999999999964271 ]
    mass: 6.940000
  - symbol: Li # 2
    coordinates: [  0.666666665622233,  0.333333333757431,  0.500000000209518 ]
    mass: 6.940000
  - symbol: Li # 3
    coordinates: [  0.333333333839069,  0.666666666684342,  0.499999999872225 ]
    mass: 6.940000
  reciprocal_lattice: # without 2pi
  - [     0.202894624598709,     0.117141264395448,     0.000000000036288 ] # a*
  - [     0.000000000000000,     0.234282534771065,    -0.000000000075799 ] # b*
  - [     0.000000000000000,     0.000000000000000,     0.345722407872318 ] # c*

unit_cell:
  lattice:
  - [     4.928666799220673,     0.000000000000000,     0.000000000000000 ] # a
  - [    -2.464333336707091,     4.268350609135997,     0.000000000000000 ] # b
  - [    -0.000000001057624,     0.000000000935823,     2.892494027663140 ] # c
  points:
  - symbol: Li # 1
    coordinates: [  0.000000000672762,  0.999999999609358,  0.999999999964271 ]
    mass: 6.940000
    reduced_to: 1
  - symbol: Li # 2
    coordinates: [  0.666666665622233,  0.333333333757431,  0.500000000209518 ]
    mass: 6.940000
    reduced_to: 2
  - symbol: Li # 3
    coordinates: [  0.333333333839069,  0.666666666684342,  0.499999999872225 ]
    mass: 6.940000
    reduced_to: 3

supercell:
  lattice:
  - [    14.786000397662020,     0.000000000000000,     0.000000000000000 ] # a
  - [    -7.393000010121274,    12.805051827407990,     0.000000000000000 ] # b
  - [    -0.000000004230496,     0.000000003743292,    11.569976110652560 ] # c
  points:
  - symbol: Li # 1
    coordinates: [  0.000000000224254,  0.333333333203119,  0.249999999991068 ]
    mass: 6.940000
    reduced_to: 1
  - symbol: Li # 2
    coordinates: [  0.333333333557587,  0.333333333203119,  0.249999999991068 ]
    mass: 6.940000
    reduced_to: 1
  - symbol: Li # 3
    coordinates: [  0.666666666890920,  0.333333333203119,  0.249999999991068 ]
    mass: 6.940000
    reduced_to: 1
  - symbol: Li # 4
    coordinates: [  0.000000000224254,  0.666666666536453,  0.249999999991068 ]
    mass: 6.940000
    reduced_to: 1
  - symbol: Li # 5
    coordinates: [  0.333333333557587,  0.666666666536453,  0.249999999991068 ]
    mass: 6.940000
    reduced_to: 1
  - symbol: Li # 6
    coordinates: [  0.666666666890920,  0.666666666536453,  0.249999999991068 ]
    mass: 6.940000
    reduced_to: 1
  - symbol: Li # 7
    coordinates: [  0.000000000224254,  0.999999999869786,  0.249999999991068 ]
    mass: 6.940000
    reduced_to: 1
  - symbol: Li # 8
    coordinates: [  0.333333333557587,  0.999999999869786,  0.249999999991068 ]
    mass: 6.940000
    reduced_to: 1
  - symbol: Li # 9
    coordinates: [  0.666666666890920,  0.999999999869786,  0.249999999991068 ]
    mass: 6.940000
    reduced_to: 1
  - symbol: Li # 10
    coordinates: [  0.000000000224254,  0.333333333203119,  0.499999999991068 ]
    mass: 6.940000
    reduced_to: 1
  - symbol: Li # 11
    coordinates: [  0.333333333557587,  0.333333333203119,  0.499999999991068 ]
    mass: 6.940000
    reduced_to: 1
  - symbol: Li # 12
    coordinates: [  0.666666666890920,  0.333333333203119,  0.499999999991068 ]
    mass: 6.940000
    reduced_to: 1
  - symbol: Li # 13
    coordinates: [  0.000000000224254,  0.666666666536453,  0.499999999991068 ]
    mass: 6.940000
    reduced_to: 1
  - symbol: Li # 14
    coordinates: [  0.333333333557587,  0.666666666536453,  0.499999999991068 ]
    mass: 6.940000
    reduced_to: 1
  - symbol: Li # 15
    coordinates: [  0.666666666890920,  0.666666666536453,  0.499999999991068 ]
    mass: 6.940000
    reduced_to: 1
  - symbol: Li # 16
    coordinates: [  0.000000000224254,  0.999999999869786,  0.499999999991068 ]
    mass: 6.940000
    reduced_to: 1
  - symbol: Li # 17
    coordinates: [  0.333333333557587,  0.999999999869786,  0.499999999991068 ]
    mass: 6.940000
    reduced_to: 1
  - symbol: Li # 18
    coordinates: [  0.666666666890920,  0.999999999869786,  0.499999999991068 ]
    mass: 6.940000
    reduced_to: 1
  - symbol: Li # 19
    coordinates: [  0.000000000224254,  0.333333333203119,  0.749999999991068 ]
    mass: 6.940000
    reduced_to: 1
  - symbol: Li # 20
    coordinates: [  0.333333333557587,  0.333333333203119,  0.749999999991068 ]
    mass: 6.940000
    reduced_to: 1
  - symbol: Li # 21
    coordinates: [  0.666666666890920,  0.333333333203119,  0.749999999991068 ]
    mass: 6.940000
    reduced_to: 1
  - symbol: Li # 22
    coordinates: [  0.000000000224254,  0.666666666536453,  0.749999999991068 ]
    mass: 6.940000
    reduced_to: 1
  - symbol: Li # 23
    coordinates: [  0.333333333557587,  0.666666666536453,  0.749999999991068 ]
    mass: 6.940000
    reduced_to: 1
  - symbol: Li # 24
    coordinates: [  0.666666666890920,  0.666666666536453,  0.749999999991068 ]
    mass: 6.940000
    reduced_to: 1
  - symbol: Li # 25
    coordinates: [  0.000000000224254,  0.999999999869786,  0.749999999991068 ]
    mass: 6.940000
    reduced_to: 1
  - symbol: Li # 26
    coordinates: [  0.333333333557587,  0.999999999869786,  0.749999999991068 ]
    mass: 6.940000
    reduced_to: 1
  - symbol: Li # 27
    coordinates: [  0.666666666890920,  0.999999999869786,  0.749999999991068 ]
    mass: 6.940000
    reduced_to: 1
  - symbol: Li # 28
    coordinates: [  0.000000000224254,  0.333333333203119,  0.999999999991068 ]
    mass: 6.940000
    reduced_to: 1
  - symbol: Li # 29
    coordinates: [  0.333333333557587,  0.333333333203119,  0.999999999991068 ]
    mass: 6.940000
    reduced_to: 1
  - symbol: Li # 30
    coordinates: [  0.666666666890920,  0.333333333203119,  0.999999999991068 ]
    mass: 6.940000
    reduced_to: 1
  - symbol: Li # 31
    coordinates: [  0.000000000224254,  0.666666666536453,  0.999999999991068 ]
    mass: 6.940000
    reduced_to: 1
  - symbol: Li # 32
    coordinates: [  0.333333333557587,  0.666666666536453,  0.999999999991068 ]
    mass: 6.940000
    reduced_to: 1
  - symbol: Li # 33
    coordinates: [  0.666666666890920,  0.666666666536453,  0.999999999991068 ]
    mass: 6.940000
    reduced_to: 1
  - symbol: Li # 34
    coordinates: [  0.000000000224254,  0.999999999869786,  0.999999999991068 ]
    mass: 6.940000
    reduced_to: 1
  - symbol: Li # 35
    coordinates: [  0.333333333557587,  0.999999999869786,  0.999999999991068 ]
    mass: 6.940000
    reduced_to: 1
  - symbol: Li # 36
    coordinates: [  0.666666666890920,  0.999999999869786,  0.999999999991068 ]
    mass: 6.940000
    reduced_to: 1
  - symbol: Li # 37
    coordinates: [  0.222222221874078,  0.111111111252477,  0.125000000052380 ]
    mass: 6.940000
    reduced_to: 37
  - symbol: Li # 38
    coordinates: [  0.555555555207411,  0.111111111252477,  0.125000000052380 ]
    mass: 6.940000
    reduced_to: 37
  - symbol: Li # 39
    coordinates: [  0.888888888540744,  0.111111111252477,  0.125000000052380 ]
    mass: 6.940000
    reduced_to: 37
  - symbol: Li # 40
    coordinates: [  0.222222221874078,  0.444444444585810,  0.125000000052380 ]
    mass: 6.940000
    reduced_to: 37
  - symbol: Li # 41
    coordinates: [  0.555555555207411,  0.444444444585810,  0.125000000052380 ]
    mass: 6.940000
    reduced_to: 37
  - symbol: Li # 42
    coordinates: [  0.888888888540744,  0.444444444585810,  0.125000000052380 ]
    mass: 6.940000
    reduced_to: 37
  - symbol: Li # 43
    coordinates: [  0.222222221874078,  0.777777777919143,  0.125000000052380 ]
    mass: 6.940000
    reduced_to: 37
  - symbol: Li # 44
    coordinates: [  0.555555555207411,  0.777777777919143,  0.125000000052380 ]
    mass: 6.940000
    reduced_to: 37
  - symbol: Li # 45
    coordinates: [  0.888888888540744,  0.777777777919143,  0.125000000052380 ]
    mass: 6.940000
    reduced_to: 37
  - symbol: Li # 46
    coordinates: [  0.222222221874078,  0.111111111252477,  0.375000000052380 ]
    mass: 6.940000
    reduced_to: 37
  - symbol: Li # 47
    coordinates: [  0.555555555207411,  0.111111111252477,  0.375000000052380 ]
    mass: 6.940000
    reduced_to: 37
  - symbol: Li # 48
    coordinates: [  0.888888888540744,  0.111111111252477,  0.375000000052380 ]
    mass: 6.940000
    reduced_to: 37
  - symbol: Li # 49
    coordinates: [  0.222222221874078,  0.444444444585810,  0.375000000052380 ]
    mass: 6.940000
    reduced_to: 37
  - symbol: Li # 50
    coordinates: [  0.555555555207411,  0.444444444585810,  0.375000000052380 ]
    mass: 6.940000
    reduced_to: 37
  - symbol: Li # 51
    coordinates: [  0.888888888540744,  0.444444444585810,  0.375000000052380 ]
    mass: 6.940000
    reduced_to: 37
  - symbol: Li # 52
    coordinates: [  0.222222221874078,  0.777777777919143,  0.375000000052380 ]
    mass: 6.940000
    reduced_to: 37
  - symbol: Li # 53
    coordinates: [  0.555555555207411,  0.777777777919143,  0.375000000052380 ]
    mass: 6.940000
    reduced_to: 37
  - symbol: Li # 54
    coordinates: [  0.888888888540744,  0.777777777919143,  0.375000000052380 ]
    mass: 6.940000
    reduced_to: 37
  - symbol: Li # 55
    coordinates: [  0.222222221874078,  0.111111111252477,  0.625000000052380 ]
    mass: 6.940000
    reduced_to: 37
  - symbol: Li # 56
    coordinates: [  0.555555555207411,  0.111111111252477,  0.625000000052380 ]
    mass: 6.940000
    reduced_to: 37
  - symbol: Li # 57
    coordinates: [  0.888888888540744,  0.111111111252477,  0.625000000052380 ]
    mass: 6.940000
    reduced_to: 37
  - symbol: Li # 58
    coordinates: [  0.222222221874078,  0.444444444585810,  0.625000000052380 ]
    mass: 6.940000
    reduced_to: 37
  - symbol: Li # 59
    coordinates: [  0.555555555207411,  0.444444444585810,  0.625000000052380 ]
    mass: 6.940000
    reduced_to: 37
  - symbol: Li # 60
    coordinates: [  0.888888888540744,  0.444444444585810,  0.625000000052380 ]
    mass: 6.940000
    reduced_to: 37
  - symbol: Li # 61
    coordinates: [  0.222222221874078,  0.777777777919143,  0.625000000052380 ]
    mass: 6.940000
    reduced_to: 37
  - symbol: Li # 62
    coordinates: [  0.555555555207411,  0.777777777919143,  0.625000000052380 ]
    mass: 6.940000
    reduced_to: 37
  - symbol: Li # 63
    coordinates: [  0.888888888540744,  0.777777777919143,  0.625000000052380 ]
    mass: 6.940000
    reduced_to: 37
  - symbol: Li # 64
    coordinates: [  0.222222221874078,  0.111111111252477,  0.875000000052380 ]
    mass: 6.940000
    reduced_to: 37
  - symbol: Li # 65
    coordinates: [  0.555555555207411,  0.111111111252477,  0.875000000052380 ]
    mass: 6.940000
    reduced_to: 37
  - symbol: Li # 66
    coordinates: [  0.888888888540744,  0.111111111252477,  0.875000000052380 ]
    mass: 6.940000
    reduced_to: 37
  - symbol: Li # 67
    coordinates: [  0.222222221874078,  0.444444444585810,  0.875000000052380 ]
    mass: 6.940000
    reduced_to: 37
  - symbol: Li # 68
    coordinates: [  0.555555555207411,  0.444444444585810,  0.875000000052380 ]
    mass: 6.940000
    reduced_to: 37
  - symbol: Li # 69
    coordinates: [  0.888888888540744,  0.444444444585810,  0.875000000052380 ]
    mass: 6.940000
    reduced_to: 37
  - symbol: Li # 70
    coordinates: [  0.222222221874078,  0.777777777919143,  0.875000000052380 ]
    mass: 6.940000
    reduced_to: 37
  - symbol: Li # 71
    coordinates: [  0.555555555207411,  0.777777777919143,  0.875000000052380 ]
    mass: 6.940000
    reduced_to: 37
  - symbol: Li # 72
    coordinates: [  0.888888888540744,  0.777777777919143,  0.875000000052380 ]
    mass: 6.940000
    reduced_to: 37
  - symbol: Li # 73
    coordinates: [  0.111111111279690,  0.222222222228114,  0.124999999968056 ]
    mass: 6.940000
    reduced_to: 73
  - symbol: Li # 74
    coordinates: [  0.444444444613023,  0.222222222228114,  0.124999999968056 ]
    mass: 6.940000
    reduced_to: 73
  - symbol: Li # 75
    coordinates: [  0.777777777946356,  0.222222222228114,  0.124999999968056 ]
    mass: 6.940000
    reduced_to: 73
  - symbol: Li # 76
    coordinates: [  0.111111111279690,  0.555555555561447,  0.124999999968056 ]
    mass: 6.940000
    reduced_to: 73
  - symbol: Li # 77
    coordinates: [  0.444444444613023,  0.555555555561447,  0.124999999968056 ]
    mass: 6.940000
    reduced_to: 73
  - symbol: Li # 78
    coordinates: [  0.777777777946356,  0.555555555561447,  0.124999999968056 ]
    mass: 6.940000
    reduced_to: 73
  - symbol: Li # 79
    coordinates: [  0.111111111279690,  0.888888888894781,  0.124999999968056 ]
    mass: 6.940000
    reduced_to: 73
  - symbol: Li # 80
    coordinates: [  0.444444444613023,  0.888888888894781,  0.124999999968056 ]
    mass: 6.940000
    reduced_to: 73
  - symbol: Li # 81
    coordinates: [  0.777777777946356,  0.888888888894781,  0.124999999968056 ]
    mass: 6.940000
    reduced_to: 73
  - symbol: Li # 82
    coordinates: [  0.111111111279690,  0.222222222228114,  0.374999999968056 ]
    mass: 6.940000
    reduced_to: 73
  - symbol: Li # 83
    coordinates: [  0.444444444613023,  0.222222222228114,  0.374999999968056 ]
    mass: 6.940000
    reduced_to: 73
  - symbol: Li # 84
    coordinates: [  0.777777777946356,  0.222222222228114,  0.374999999968056 ]
    mass: 6.940000
    reduced_to: 73
  - symbol: Li # 85
    coordinates: [  0.111111111279690,  0.555555555561447,  0.374999999968056 ]
    mass: 6.940000
    reduced_to: 73
  - symbol: Li # 86
    coordinates: [  0.444444444613023,  0.555555555561447,  0.374999999968056 ]
    mass: 6.940000
    reduced_to: 73
  - symbol: Li # 87
    coordinates: [  0.777777777946356,  0.555555555561447,  0.374999999968056 ]
    mass: 6.940000
    reduced_to: 73
  - symbol: Li # 88
    coordinates: [  0.111111111279690,  0.888888888894781,  0.374999999968056 ]
    mass: 6.940000
    reduced_to: 73
  - symbol: Li # 89
    coordinates: [  0.444444444613023,  0.888888888894781,  0.374999999968056 ]
    mass: 6.940000
    reduced_to: 73
  - symbol: Li # 90
    coordinates: [  0.777777777946356,  0.888888888894781,  0.374999999968056 ]
    mass: 6.940000
    reduced_to: 73
  - symbol: Li # 91
    coordinates: [  0.111111111279690,  0.222222222228114,  0.624999999968056 ]
    mass: 6.940000
    reduced_to: 73
  - symbol: Li # 92
    coordinates: [  0.444444444613023,  0.222222222228114,  0.624999999968056 ]
    mass: 6.940000
    reduced_to: 73
  - symbol: Li # 93
    coordinates: [  0.777777777946356,  0.222222222228114,  0.624999999968056 ]
    mass: 6.940000
    reduced_to: 73
  - symbol: Li # 94
    coordinates: [  0.111111111279690,  0.555555555561447,  0.624999999968056 ]
    mass: 6.940000
    reduced_to: 73
  - symbol: Li # 95
    coordinates: [  0.444444444613023,  0.555555555561447,  0.624999999968056 ]
    mass: 6.940000
    reduced_to: 73
  - symbol: Li # 96
    coordinates: [  0.777777777946356,  0.555555555561447,  0.624999999968056 ]
    mass: 6.940000
    reduced_to: 73
  - symbol: Li # 97
    coordinates: [  0.111111111279690,  0.888888888894781,  0.624999999968056 ]
    mass: 6.940000
    reduced_to: 73
  - symbol: Li # 98
    coordinates: [  0.444444444613023,  0.888888888894781,  0.624999999968056 ]
    mass: 6.940000
    reduced_to: 73
  - symbol: Li # 99
    coordinates: [  0.777777777946356,  0.888888888894781,  0.624999999968056 ]
    mass: 6.940000
    reduced_to: 73
  - symbol: Li # 100
    coordinates: [  0.111111111279690,  0.222222222228114,  0.874999999968056 ]
    mass: 6.940000
    reduced_to: 73
  - symbol: Li # 101
    coordinates: [  0.444444444613023,  0.222222222228114,  0.874999999968056 ]
    mass: 6.940000
    reduced_to: 73
  - symbol: Li # 102
    coordinates: [  0.777777777946356,  0.222222222228114,  0.874999999968056 ]
    mass: 6.940000
    reduced_to: 73
  - symbol: Li # 103
    coordinates: [  0.111111111279690,  0.555555555561447,  0.874999999968056 ]
    mass: 6.940000
    reduced_to: 73
  - symbol: Li # 104
    coordinates: [  0.444444444613023,  0.555555555561447,  0.874999999968056 ]
    mass: 6.940000
    reduced_to: 73
  - symbol: Li # 105
    coordinates: [  0.777777777946356,  0.555555555561447,  0.874999999968056 ]
    mass: 6.940000
    reduced_to: 73
  - symbol: Li # 106
    coordinates: [  0.111111111279690,  0.888888888894781,  0.874999999968056 ]
    mass: 6.940000
    reduced_to: 73
  - symbol: Li # 107
    coordinates: [  0.444444444613023,  0.888888888894781,  0.874999999968056 ]
    mass: 6.940000
    reduced_to: 73
  - symbol: Li # 108
    coordinates: [  0.777777777946356,  0.888888888894781,  0.874999999968056 ]
    mass: 6.940000
    reduced_to: 73

displacements:
- atom:    1
  displacement:
    [   0.0078754833497828,  0.0000000000019938,  0.0061625288646216 ]
  forces:
  - [  -0.0073480485007167, -0.0000000782893039, -0.0098712183535099 ]
  - [  -0.0003823348088190, -0.0000000065192580,  0.0000143535435200 ]
  - [  -0.0003513270057738,  0.0000001191510819,  0.0000126910163090 ]
  - [  -0.0000763559801271,  0.0001639195252210,  0.0000130787957460 ]
  - [  -0.0000790781778051, -0.0001706485636532,  0.0000138725154102 ]
  - [  -0.0000020380898604, -0.0000001428998075,  0.0000016795238480 ]
  - [  -0.0000789919577073,  0.0001706170733087,  0.0000138531904668 ]
  - [  -0.0000017327256501, -0.0000000921427272,  0.0000015331315808 ]
  - [  -0.0000762118434068, -0.0001640120754018,  0.0000130492426251 ]
  - [  -0.0003862950834446, -0.0000001443549991,  0.0032395035959780 ]
  - [  -0.0000211592850974, -0.0000000276486389, -0.0000130750704557 ]
  - [  -0.0000121020857478,  0.0000001065200195, -0.0000017721322365 ]
  - [   0.0000070757378126,  0.0000088887754828, -0.0000045320484787 ]
  - [   0.0000029286825338, -0.0000164967495948, -0.0000101058976725 ]
  - [  -0.0000016890660390, -0.0000001903390512, -0.0000003975583240 ]
  - [   0.0000029492657632,  0.0000165972742252, -0.0000100875040516 ]
  - [  -0.0000015824625734,  0.0000000011641532, -0.0000003989553079 ]
  - [   0.0000070508394856, -0.0000089066452347, -0.0000044949119911 ]
  - [  -0.0000034672484617, -0.0000001917942427,  0.0001045650569722 ]
  - [   0.0000005310430424, -0.0000000134459697,  0.0000064548221417 ]
  - [   0.0000006257105269,  0.0000001039006747,  0.0000060225138441 ]
  - [   0.0000002683154889, -0.0000000074505806,  0.0000060994643718 ]
  - [   0.0000003741158707, -0.0000000980217010,  0.0000062210019678 ]
  - [  -0.0000013123280951, -0.0000001429580152, -0.0000007698545232 ]
  - [   0.0000003376044333,  0.0000002709566616,  0.0000061313621700 ]
  - [  -0.0000011986121535,  0.0000001086154953, -0.0000007792259566 ]
  - [   0.0000002989254426, -0.0000000802683644,  0.0000060509773903 ]
  - [  -0.0003670690348372, -0.0000001837033778,  0.0032044306863099 ]
  - [  -0.0000120818986034, -0.0000000488362275, -0.0000021976302378 ]
  - [  -0.0000195909924514,  0.0000000968575478, -0.0000122751225717 ]
  - [   0.0000029609109333,  0.0000155734596774, -0.0000098011223599 ]
  - [   0.0000071639533417, -0.0000088840024546, -0.0000047599896789 ]
  - [  -0.0000017795864551, -0.0000002079177648, -0.0000003310851753 ]
  - [   0.0000071343092714,  0.0000089887762442, -0.0000047453213483 ]
  - [  -0.0000016114208847,  0.0000000666477717, -0.0000003127497621 ]
  - [   0.0000028863141779, -0.0000157752656378, -0.0000097686424851 ]
  - [  -0.0000015454788809, -0.0000023948377930, -0.0000047810044634 ]
  - [  -0.0000243245485763, -0.0000113710411824,  0.0000057268985074 ]
  - [  -0.0000002230008249,  0.0006475888658315,  0.0003058311413042 ]
  - [   0.0005986322648823,  0.0003480452578515, -0.0003418243722990 ]
  - [   0.0000041325693019, -0.0000010035000741, -0.0000004158355296 ]
  - [   0.0016987230628729, -0.0009791061747819,  0.0009362902492285 ]
  - [  -0.0000056289136410,  0.0000126883969642,  0.0000002955785021 ]
  - [   0.0000006365298759,  0.0000022000749595, -0.0000008606584743 ]
  - [   0.0000033988326322, -0.0000014174147509, -0.0000000431900844 ]
  - [  -0.0000230161895161,  0.0000100582838058,  0.0000054780393839 ]
  - [  -0.0000017754730379,  0.0000018440186977, -0.0000048037618399 ]
  - [  -0.0000039725055103, -0.0006455043330789,  0.0003018733114004 ]
  - [   0.0017419885843992,  0.0010104542598128,  0.0009603481739759 ]
  - [   0.0000042393803596,  0.0000015785917640, -0.0000001490116119 ]
  - [   0.0006022006273270, -0.0003482261672616, -0.0003392156213522 ]
  - [  -0.0000056792050600, -0.0000127354287542,  0.0000005513429642 ]
  - [   0.0000029522634577,  0.0000009859213606,  0.0000002626329660 ]
  - [   0.0000011399097275, -0.0000028212089092, -0.0000005606561899 ]
  - [   0.0000049365262385, -0.0000036531127989,  0.0000020257089091 ]
  - [  -0.0000004361240826,  0.0000000118743628, -0.0000022245380933 ]
  - [  -0.0000044623811846,  0.0000401007710025, -0.0000299942657875 ]
  - [  -0.0000346428714693, -0.0000171207357198, -0.0000545505899936 ]
  - [   0.0000010008807294,  0.0000006759073585,  0.0000000866129994 ]
  - [   0.0000340595724992, -0.0000227494165301, -0.0000059701269493 ]
  - [  -0.0000012395903468,  0.0000027140486054, -0.0000000604195520 ]
  - [   0.0000013475946616, -0.0000001734006219,  0.0000005019828677 ]
  - [   0.0000011445663404, -0.0000009627547115, -0.0000002483138815 ]
  - [  -0.0000003150039447, -0.0000004302710295, -0.0000019489975784 ]
  - [   0.0000049634477364,  0.0000031348317862,  0.0000026200414140 ]
  - [  -0.0000045980395953, -0.0000403868034482, -0.0000299950406770 ]
  - [   0.0000352448550984,  0.0000231452286243, -0.0000061410619310 ]
  - [   0.0000008610077202, -0.0000001373700798,  0.0000003706290954 ]
  - [  -0.0000355626689270,  0.0000174266751856, -0.0000534082901140 ]
  - [  -0.0000013331882656, -0.0000034206314012,  0.0000002644014785 ]
  - [   0.0000005364126991,  0.0000002819579095,  0.0000000799359441 ]
  - [   0.0000017946294975, -0.0000004452886060,  0.0000007660692063 ]
  - [   0.0005983835435472, -0.0003478986327536, -0.0003419483546168 ]
  - [   0.0000039710448618,  0.0000012258751667, -0.0000004844041541 ]
  - [   0.0016997492639348,  0.0009794940706342,  0.0009362767450511 ]
  - [  -0.0000001964199328, -0.0006476035341620,  0.0003058405709453 ]
  - [  -0.0000016315916582,  0.0000020841453079, -0.0000047672074288 ]
  - [  -0.0000240395147557,  0.0000106689731183,  0.0000058212317526 ]
  - [   0.0000001111911843, -0.0000020781262720, -0.0000008314382285 ]
  - [   0.0000023608336051,  0.0000016398043954, -0.0000000746222213 ]
  - [  -0.0000063888633122, -0.0000123939989862,  0.0000003096065484 ]
  - [   0.0017417808994651, -0.0010103111853823,  0.0009604096412659 ]
  - [   0.0000041051716835, -0.0000013741919247, -0.0000001434236765 ]
  - [   0.0006032020319253,  0.0003485099005047, -0.0003391671925783 ]
  - [  -0.0000039314436435,  0.0006454668473452,  0.0003018524730578 ]
  - [  -0.0000231174890359, -0.0000103567253973,  0.0000054365955293 ]
  - [  -0.0000015185723896, -0.0000023945940484, -0.0000048379879445 ]
  - [   0.0000022986678232, -0.0000008629249351,  0.0000001825392246 ]
  - [   0.0000000634912141,  0.0000028709400794, -0.0000005494803190 ]
  - [  -0.0000064486334850,  0.0000130961925606,  0.0000004675239325 ]
  - [  -0.0000348652974935,  0.0000172949039552, -0.0000545083312318 ]
  - [   0.0000008937968232, -0.0000004536959750,  0.0000001232838258 ]
  - [   0.0000350506015820,  0.0000230860750889, -0.0000060022175603 ]
  - [  -0.0000046297536755, -0.0000400873032049, -0.0000300124520436 ]
  - [   0.0000047325411288,  0.0000033148971852,  0.0000021250452846 ]
  - [  -0.0000001764819899, -0.0000006640548236, -0.0000022709136829 ]
  - [   0.0000008263377822,  0.0000002982742444,  0.0000005515757948 ]
  - [   0.0000001974634358,  0.0000010708681657, -0.0000002789311111 ]
  - [  -0.0000020894185582, -0.0000024249129638, -0.0000000072504918 ]
  - [   0.0000349941838067, -0.0000231036101468, -0.0000061137834564 ]
  - [   0.0000007135968190,  0.0000003187451512,  0.0000004250323400 ]
  - [  -0.0000344975269400, -0.0000172069994733, -0.0000533908605576 ]
  - [  -0.0000046208733693,  0.0000404027523473, -0.0000299602979794 ]
  - [  -0.0000004277098924,  0.0000001918524504, -0.0000020271399990 ]
  - [   0.0000052087416407, -0.0000038536381908,  0.0000025485642254 ]
  - [   0.0000001773005351, -0.0000001873704605,  0.0000000572763383 ]
  - [   0.0000009820796549,  0.0000005788751878,  0.0000008294591680 ]
  - [  -0.0000019473372959,  0.0000036695855670,  0.0000002477318048 ]
- atom:   37
  displacement:
    [   0.0078754833497828,  0.0000000000019938,  0.0061625288646216 ]
  forces:
  - [  -0.0000172118998307,  0.0000064093037508,  0.0000145603553392 ]
  - [  -0.0000040780869313,  0.0005810562288389,  0.0003019124851562 ]
  - [  -0.0000086025866040, -0.0000015301629901, -0.0000136791495606 ]
  - [  -0.0000061831160565, -0.0000049470108934,  0.0000004461035132 ]
  - [   0.0000014977092633, -0.0000018174177967,  0.0000010424992070 ]
  - [   0.0000007937854889,  0.0000018043792807, -0.0000017856946215 ]
  - [   0.0006583502981812,  0.0003806573222391, -0.0004101819358766 ]
  - [   0.0016864695353433, -0.0009782125707716,  0.0010313447564840 ]
  - [   0.0000044879561756, -0.0000004111207090, -0.0000003963941708 ]
  - [   0.0000001945809345, -0.0000011599622667, -0.0000033504911698 ]
  - [  -0.0000049323498388, -0.0000215371837839, -0.0000297997030430 ]
  - [   0.0000039044316509,  0.0000032198149711,  0.0000035509583540 ]
  - [  -0.0000017225247575, -0.0000020770239644,  0.0000000305008143 ]
  - [   0.0000008382492069, -0.0000002523302101,  0.0000007329508662 ]
  - [   0.0000001538177088,  0.0000003469176590, -0.0000002194428816 ]
  - [   0.0000183405063581,  0.0000137582537718,  0.0000148634426296 ]
  - [  -0.0000188295089174,  0.0000079416204244, -0.0000747421872802 ]
  - [   0.0000010523945093, -0.0000004227622412,  0.0000002657179721 ]
  - [   0.0000037624558900, -0.0000031223171391,  0.0000037324498408 ]
  - [  -0.0000048231377150,  0.0000217127962969, -0.0000298579689115 ]
  - [   0.0000004378089216,  0.0000011084484868, -0.0000030705123208 ]
  - [  -0.0000016979975044,  0.0000019940198399,  0.0000003670575097 ]
  - [   0.0000002267704247, -0.0000005944748409,  0.0000000549480319 ]
  - [   0.0000007332710084,  0.0000000469735824,  0.0000009974464774 ]
  - [  -0.0000190264836419, -0.0000078876037151, -0.0000740295508876 ]
  - [   0.0000187837285921, -0.0000136754824780,  0.0000144873047248 ]
  - [   0.0000010675576050,  0.0000002913875505,  0.0000005327165127 ]
  - [  -0.0000089935965661,  0.0000017228303477, -0.0000137505703606 ]
  - [  -0.0000007309281500, -0.0005834723124281,  0.0003056895802729 ]
  - [  -0.0000168095903064, -0.0000062060425989,  0.0000143410870805 ]
  - [  -0.0000061043356254,  0.0000045462511480,  0.0000003265449777 ]
  - [   0.0000010394196579, -0.0000021255109459, -0.0000017428537831 ]
  - [   0.0000013815661077,  0.0000013925018720,  0.0000011189840734 ]
  - [   0.0016432148404419,  0.0009473969694227,  0.0010075153550133 ]
  - [   0.0006538024172187, -0.0003800220438279, -0.0004134152550250 ]
  - [   0.0000043204345275,  0.0000002279412001, -0.0000003391760401 ]
  - [  -0.0096035227179527, -0.0000222430098802, -0.0069154016673565 ]
  - [  -0.0002992342051584, -0.0000150467967615, -0.0000187757741514 ]
  - [  -0.0002705118386075,  0.0000136143062264, -0.0000195231550606 ]
  - [  -0.0000616364413872,  0.0001115780323744, -0.0000192142324522 ]
  - [  -0.0000652834423818, -0.0001162728294730, -0.0000191018916667 ]
  - [   0.0000022004824132,  0.0000002901069820, -0.0000014880206436 ]
  - [  -0.0000646212138236,  0.0001451609423384, -0.0000188713893294 ]
  - [   0.0000032325915527, -0.0000003303284757, -0.0000015166588128 ]
  - [  -0.0000612024159636, -0.0001394093851559, -0.0000195072716451 ]
  - [  -0.0003220023936592,  0.0000002812594175,  0.0034175254404545 ]
  - [  -0.0000352937713615,  0.0000078044831753, -0.0000147409737110 ]
  - [  -0.0000150105406647, -0.0000041024759412,  0.0000105369836092 ]
  - [   0.0000072289258242,  0.0000134790316224,  0.0000066589564085 ]
  - [   0.0000004954636097, -0.0000324910506606, -0.0000107400119305 ]
  - [  -0.0000021941959858,  0.0000002272427082,  0.0000006053596735 ]
  - [  -0.0000025685876608,  0.0000181309296750, -0.0000058766454458 ]
  - [  -0.0000011846714187, -0.0000001625739969,  0.0000006314367056 ]
  - [   0.0000113807327580, -0.0000036240089685,  0.0000020302832127 ]
  - [  -0.0000493279148941, -0.0000001093721949,  0.0001252752408618 ]
  - [   0.0000203323688766, -0.0000111670233309,  0.0000230318983085 ]
  - [   0.0000205752949114,  0.0000106603838503,  0.0000229600373132 ]
  - [   0.0000002933666110, -0.0000222800299525,  0.0000229286961257 ]
  - [  -0.0000003657769412,  0.0000227042473853,  0.0000229661818594 ]
  - [  -0.0000006742193364,  0.0000001755543053,  0.0000002508750185 ]
  - [   0.0000001881271601, -0.0000012220698409,  0.0000229666475207 ]
  - [   0.0000002942688297, -0.0000003284658305,  0.0000002228189260 ]
  - [   0.0000008158094715,  0.0000005303882062,  0.0000229311408475 ]
  - [  -0.0003013931564055,  0.0000001583248377,  0.0033852402120829 ]
  - [  -0.0000151043723235,  0.0000034850090742,  0.0000108216027002 ]
  - [  -0.0000343632927979, -0.0000084992498159, -0.0000142993994814 ]
  - [   0.0000010817893781,  0.0000325208529830, -0.0000105583530967 ]
  - [   0.0000065427739173, -0.0000129931140691,  0.0000069321245064 ]