phonopy:
  version: "2.37.1"
  frequency_unit_conversion_factor: 15.633302
  symmetry_tolerance: 1.00000e-05

space_group:
  type: "C2/m"
  number: 12
  Hall_symbol: "-C 2y"

primitive_matrix:
- [  0.000000000000000,  1.000000000000000,  0.000000000000000 ]
- [  1.000000000000000,  0.000000000000000, -0.000000000000000 ]
- [  0.000000000000000,  0.000000000000000, -1.000000000000000 ]

supercell_matrix:
- [   2,   0,   0 ]
- [   0,   2,   0 ]
- [   0,   0,   2 ]

primitive_cell:
  lattice:
  - [     3.718402335548509,     4.034721113309502,     0.000000000000000 ] # a
  - [     5.486846946144627,     0.000000000000000,     0.000000000000000 ] # b
  - [    -1.790308681417503,    -0.784704136562931,    -5.508743966803499 ] # c
  points:
  - symbol: Li # 1
    coordinates: [  0.678274998611754,  0.678275059210036,  0.370102574057549 ]
    mass: 6.940000
  - symbol: Li # 2
    coordinates: [  0.376289293721856,  0.376289240705405,  0.738042883605449 ]
    mass: 6.940000
  - symbol: Li # 3
    coordinates: [  0.345932962211890,  0.345932959125844,  0.206401567250434 ]
    mass: 6.940000
  - symbol: Li # 4
    coordinates: [  0.043947214286187,  0.043947162887546,  0.574341862634923 ]
    mass: 6.940000
  - symbol: Sn # 5
    coordinates: [  0.025966350878473,  0.025966456218983,  0.071051356061126 ]
    mass: 118.710000
  - symbol: Sn # 6
    coordinates: [  0.696255846830529,  0.696255786869792,  0.873393088755694 ]
    mass: 118.710000
  reciprocal_lattice: # without 2pi
  - [     0.000000000000000,     0.247848605124468,    -0.035305294066040 ] # a*
  - [     0.182254035845242,    -0.167965471098994,    -0.035305286250006 ] # b*
  - [     0.000000000000000,     0.000000000000000,    -0.181529583880853 ] # c*

unit_cell:
  lattice:
  - [     5.486846946144627,     0.000000000000000,     0.000000000000000 ] # a
  - [     3.718402335548509,     4.034721113309502,     0.000000000000000 ] # b
  - [     1.790308681417502,     0.784704136562931,     5.508743966803499 ] # c
  points:
  - symbol: Li # 1
    coordinates: [  0.678275059210036,  0.678274998611754,  0.629897425942452 ]
    mass: 6.940000
    reduced_to: 1
  - symbol: Li # 2
    coordinates: [  0.376289240705405,  0.376289293721856,  0.261957116394551 ]
    mass: 6.940000
    reduced_to: 2
  - symbol: Li # 3
    coordinates: [  0.345932959125844,  0.345932962211890,  0.793598432749566 ]
    mass: 6.940000
    reduced_to: 3
  - symbol: Li # 4
    coordinates: [  0.043947162887546,  0.043947214286187,  0.425658137365077 ]
    mass: 6.940000
    reduced_to: 4
  - symbol: Sn # 5
    coordinates: [  0.025966456218983,  0.025966350878473,  0.928948643938874 ]
    mass: 118.710000
    reduced_to: 5
  - symbol: Sn # 6
    coordinates: [  0.696255786869792,  0.696255846830529,  0.126606911244306 ]
    mass: 118.710000
    reduced_to: 6

supercell:
  lattice:
  - [    10.973693892289255,     0.000000000000000,     0.000000000000000 ] # a
  - [     7.436804671097017,     8.069442226619005,     0.000000000000000 ] # b
  - [     3.580617362835004,     1.569408273125862,    11.017487933606997 ] # c
  points:
  - symbol: Li # 1
    coordinates: [  0.339137529605018,  0.339137499305877,  0.314948712971226 ]
    mass: 6.940000
    reduced_to: 1
  - symbol: Li # 2
    coordinates: [  0.839137529605018,  0.339137499305877,  0.314948712971226 ]
    mass: 6.940000
    reduced_to: 1
  - symbol: Li # 3
    coordinates: [  0.339137529605018,  0.839137499305877,  0.314948712971226 ]
    mass: 6.940000
    reduced_to: 1
  - symbol: Li # 4
    coordinates: [  0.839137529605018,  0.839137499305877,  0.314948712971226 ]
    mass: 6.940000
    reduced_to: 1
  - symbol: Li # 5
    coordinates: [  0.339137529605018,  0.339137499305877,  0.814948712971226 ]
    mass: 6.940000
    reduced_to: 1
  - symbol: Li # 6
    coordinates: [  0.839137529605018,  0.339137499305877,  0.814948712971226 ]
    mass: 6.940000
    reduced_to: 1
  - symbol: Li # 7
    coordinates: [  0.339137529605018,  0.839137499305877,  0.814948712971226 ]
    mass: 6.940000
    reduced_to: 1
  - symbol: Li # 8
    coordinates: [  0.839137529605018,  0.839137499305877,  0.814948712971226 ]
    mass: 6.940000
    reduced_to: 1
  - symbol: Li # 9
    coordinates: [  0.188144620352702,  0.188144646860928,  0.130978558197276 ]
    mass: 6.940000
    reduced_to: 9
  - symbol: Li # 10
    coordinates: [  0.688144620352702,  0.188144646860928,  0.130978558197276 ]
    mass: 6.940000
    reduced_to: 9
  - symbol: Li # 11
    coordinates: [  0.188144620352702,  0.688144646860928,  0.130978558197276 ]
    mass: 6.940000
    reduced_to: 9
  - symbol: Li # 12
    coordinates: [  0.688144620352702,  0.688144646860928,  0.130978558197276 ]
    mass: 6.940000
    reduced_to: 9
  - symbol: Li # 13
    coordinates: [  0.188144620352702,  0.188144646860928,  0.630978558197276 ]
    mass: 6.940000
    reduced_to: 9
  - symbol: Li # 14
    coordinates: [  0.688144620352702,  0.188144646860928,  0.630978558197276 ]
    mass: 6.940000
    reduced_to: 9
  - symbol: Li # 15
    coordinates: [  0.188144620352702,  0.688144646860928,  0.630978558197276 ]
    mass: 6.940000
    reduced_to: 9
  - symbol: Li # 16
    coordinates: [  0.688144620352702,  0.688144646860928,  0.630978558197276 ]
    mass: 6.940000
    reduced_to: 9
  - symbol: Li # 17
    coordinates: [  0.172966479562922,  0.172966481105945,  0.396799216374783 ]
    mass: 6.940000
    reduced_to: 17
  - symbol: Li # 18
    coordinates: [  0.672966479562922,  0.172966481105945,  0.396799216374783 ]
    mass: 6.940000
    reduced_to: 17
  - symbol: Li # 19
    coordinates: [  0.172966479562922,  0.672966481105945,  0.396799216374783 ]
    mass: 6.940000
    reduced_to: 17
  - symbol: Li # 20
    coordinates: [  0.672966479562922,  0.672966481105945,  0.396799216374783 ]
    mass: 6.940000
    reduced_to: 17
  - symbol: Li # 21
    coordinates: [  0.172966479562922,  0.172966481105945,  0.896799216374783 ]
    mass: 6.940000
    reduced_to: 17
  - symbol: Li # 22
    coordinates: [  0.672966479562922,  0.172966481105945,  0.896799216374783 ]
    mass: 6.940000
    reduced_to: 17
  - symbol: Li # 23
    coordinates: [  0.172966479562922,  0.672966481105945,  0.896799216374783 ]
    mass: 6.940000
    reduced_to: 17
  - symbol: Li # 24
    coordinates: [  0.672966479562922,  0.672966481105945,  0.896799216374783 ]
    mass: 6.940000
    reduced_to: 17
  - symbol: Li # 25
    coordinates: [  0.021973581443773,  0.021973607143093,  0.212829068682539 ]
    mass: 6.940000
    reduced_to: 25
  - symbol: Li # 26
    coordinates: [  0.521973581443773,  0.021973607143093,  0.212829068682539 ]
    mass: 6.940000
    reduced_to: 25
  - symbol: Li # 27
    coordinates: [  0.021973581443773,  0.521973607143093,  0.212829068682539 ]
    mass: 6.940000
    reduced_to: 25
  - symbol: Li # 28
    coordinates: [  0.521973581443773,  0.521973607143093,  0.212829068682539 ]
    mass: 6.940000
    reduced_to: 25
  - symbol: Li # 29
    coordinates: [  0.021973581443773,  0.021973607143093,  0.712829068682539 ]
    mass: 6.940000
    reduced_to: 25
  - symbol: Li # 30
    coordinates: [  0.521973581443773,  0.021973607143093,  0.712829068682539 ]
    mass: 6.940000
    reduced_to: 25
  - symbol: Li # 31
    coordinates: [  0.021973581443773,  0.521973607143093,  0.712829068682539 ]
    mass: 6.940000
    reduced_to: 25
  - symbol: Li # 32
    coordinates: [  0.521973581443773,  0.521973607143093,  0.712829068682539 ]
    mass: 6.940000
    reduced_to: 25
  - symbol: Sn # 33
    coordinates: [  0.012983228109491,  0.012983175439236,  0.464474321969437 ]
    mass: 118.710000
    reduced_to: 33
  - symbol: Sn # 34
    coordinates: [  0.512983228109491,  0.012983175439236,  0.464474321969437 ]
    mass: 118.710000
    reduced_to: 33
  - symbol: Sn # 35
    coordinates: [  0.012983228109491,  0.512983175439236,  0.464474321969437 ]
    mass: 118.710000
    reduced_to: 33
  - symbol: Sn # 36
    coordinates: [  0.512983228109491,  0.512983175439236,  0.464474321969437 ]
    mass: 118.710000
    reduced_to: 33
  - symbol: Sn # 37
    coordinates: [  0.012983228109491,  0.012983175439236,  0.964474321969437 ]
    mass: 118.710000
    reduced_to: 33
  - symbol: Sn # 38
    coordinates: [  0.512983228109491,  0.012983175439236,  0.964474321969437 ]
    mass: 118.710000
    reduced_to: 33
  - symbol: Sn # 39
    coordinates: [  0.012983228109491,  0.512983175439236,  0.964474321969437 ]
    mass: 118.710000
    reduced_to: 33
  - symbol: Sn # 40
    coordinates: [  0.512983228109491,  0.512983175439236,  0.964474321969437 ]
    mass: 118.710000
    reduced_to: 33
  - symbol: Sn # 41
    coordinates: [  0.348127893434896,  0.348127923415265,  0.063303455622153 ]
    mass: 118.710000
    reduced_to: 41
  - symbol: Sn # 42
    coordinates: [  0.848127893434896,  0.348127923415265,  0.063303455622153 ]
    mass: 118.710000
    reduced_to: 41
  - symbol: Sn # 43
    coordinates: [  0.348127893434896,  0.848127923415265,  0.063303455622153 ]
    mass: 118.710000
    reduced_to: 41
  - symbol: Sn # 44
    coordinates: [  0.848127893434896,  0.848127923415265,  0.063303455622153 ]
    mass: 118.710000
    reduced_to: 41
  - symbol: Sn # 45
    coordinates: [  0.348127893434896,  0.348127923415265,  0.563303455622153 ]
    mass: 118.710000
    reduced_to: 41
  - symbol: Sn # 46
    coordinates: [  0.848127893434896,  0.348127923415265,  0.563303455622153 ]
    mass: 118.710000
    reduced_to: 41
  - symbol: Sn # 47
    coordinates: [  0.348127893434896,  0.848127923415265,  0.563303455622153 ]
    mass: 118.710000
    reduced_to: 41
  - symbol: Sn # 48
    coordinates: [  0.848127893434896,  0.848127923415265,  0.563303455622153 ]
    mass: 118.710000
    reduced_to: 41

displacements:
- atom:    1
  displacement:
    [   0.0100000000000000,  0.0000000000000000,  0.0000000000000000 ]
  forces:
  - [  -0.0204624235630035,  0.0001208214089274,  0.0003575533628464 ]
  - [  -0.0061291959136724, -0.0027531711384654,  0.0030508805066347 ]
  - [  -0.0062058288604021, -0.0026815040037036,  0.0030776783823967 ]
  - [  -0.0066030025482178, -0.0027146954089403,  0.0032186508178711 ]
  - [  -0.0064817182719707, -0.0028922967612743,  0.0026258062571287 ]
  - [  -0.0062883868813515, -0.0027683693915606,  0.0031110588461161 ]
  - [  -0.0063051413744688, -0.0027519110590219,  0.0031108744442463 ]
  - [  -0.0063375495374203, -0.0027560954913497,  0.0030341278761625 ]
  - [   0.0255934633314610,  0.0111696645617485,  0.0161104872822762 ]
  - [   0.0268609486520290,  0.0108283236622810,  0.0155609883368015 ]
  - [   0.0261159110814333,  0.0116467326879501,  0.0163651518523693 ]
  - [   0.0257042050361633,  0.0113841462880373,  0.0164241231977940 ]
  - [   0.0260275360196829,  0.0113133005797863,  0.0170330964028835 ]
  - [   0.0260565169155598,  0.0113133713603020,  0.0164626352488995 ]
  - [   0.0260097645223141,  0.0114979464560747,  0.0165499821305275 ]
  - [   0.0258634425699711,  0.0117614567279816,  0.0165471471846104 ]
  - [  -0.0242527611553669, -0.0107308812439442, -0.0174805819988251 ]
  - [  -0.0239353850483894, -0.0127459783107042, -0.0152150094509125 ]
  - [  -0.0256241336464882, -0.0104067809879780, -0.0161267518997192 ]
  - [  -0.0258027222007513, -0.0114980414509773, -0.0166338905692101 ]
  - [  -0.0259755365550518, -0.0113906431943178, -0.0164436511695385 ]
  - [  -0.0258968472480774, -0.0115390978753567, -0.0165430083870888 ]
  - [  -0.0260204747319221, -0.0112846055999398, -0.0164714306592941 ]
  - [  -0.0259576030075550, -0.0113711738958955, -0.0164064913988113 ]
  - [   0.0064335372298956,  0.0027542728930712, -0.0031066667288542 ]
  - [   0.0065175835043192,  0.0035950066521764, -0.0028661023825407 ]
  - [   0.0086251255124807,  0.0016433838754892, -0.0016582868993282 ]
  - [   0.0072470623999834,  0.0030950671061873, -0.0035479776561260 ]
  - [   0.0063053891062737,  0.0027650678530335, -0.0030648522078991 ]
  - [   0.0062885787338018,  0.0028222035616636, -0.0031720511615276 ]
  - [   0.0065276864916086,  0.0025975080206990, -0.0030390005558729 ]
  - [   0.0063215065747499,  0.0027695912867785, -0.0030911639332771 ]
  - [  -0.0489581339061260, -0.0212470740079880,  0.0054492130875587 ]
  - [  -0.0475643314421177, -0.0218310803174973,  0.0061481036245823 ]
  - [  -0.0443465709686279, -0.0241204891353846,  0.0019883997738361 ]
  - [  -0.0481023862957954, -0.0210887473076582,  0.0052267313003540 ]
  - [  -0.0483935028314590, -0.0210287030786276,  0.0055778399109840 ]
  - [  -0.0482862293720245, -0.0212164353579283,  0.0054322630167007 ]
  - [  -0.0482453480362892, -0.0212052818387747,  0.0054826699197292 ]
  - [  -0.0482512190937996, -0.0211125127971172,  0.0054440721869469 ]
  - [   0.0488504990935326,  0.0210293345153332, -0.0027404278516769 ]
  - [   0.0483026839792728,  0.0211522467434406, -0.0053897835314274 ]
  - [   0.0483630299568176,  0.0211904197931290, -0.0053868740797043 ]
  - [   0.0483447313308716,  0.0211993493139744, -0.0055541284382343 ]
  - [   0.0486543364822865,  0.0214118119329214, -0.0031478814780712 ]
  - [   0.0485351607203484,  0.0212592482566833, -0.0055266246199608 ]
  - [   0.0486196577548981,  0.0214140247553587, -0.0055340602993965 ]
  - [   0.0482580624520779,  0.0214012712240219, -0.0052428729832172 ]
- atom:    1
  displacement:
    [  -0.0100000000000000,  0.0000000000000000,  0.0000000000000000 ]
  forces:
  - [   0.0079378597438335, -0.0057536382228136,  0.0057043973356485 ]
  - [  -0.0065032951533794, -0.0027844225987792,  0.0031075254082680 ]
  - [  -0.0064251441508532, -0.0028553642332554,  0.0030797608196735 ]
  - [  -0.0060292780399323, -0.0028228098526597,  0.0029400307685137 ]
  - [  -0.0061521232128143, -0.0026449169963598,  0.0035425890237093 ]
  - [  -0.0063447859138250, -0.0027693854644895,  0.0030521806329489 ]
  - [  -0.0063267797231674, -0.0027849506586790,  0.0030507706105709 ]
  - [  -0.0062915142625570, -0.0027815941721201,  0.0031274370849133 ]
  - [   0.0263449586927891,  0.0115957260131836,  0.0168108195066452 ]
  - [   0.0250753164291382,  0.0119209000840783,  0.0173388049006462 ]
  - [   0.0258109830319881,  0.0111074037849903,  0.0165578573942184 ]
  - [   0.0262171979993582,  0.0113730933517218,  0.0164901800453663 ]
  - [   0.0259005185216665,  0.0114531908184290,  0.0158823095262051 ]
  - [   0.0258730389177799,  0.0114455148577690,  0.0164530649781227 ]
  - [   0.0259179417043924,  0.0112630585208535,  0.0163674913346767 ]
  - [   0.0260585397481918,  0.0110033107921481,  0.0163756720721722 ]
  - [  -0.0277120955288410, -0.0120449308305979, -0.0154182389378548 ]
  - [  -0.0279416255652905, -0.0100468387827277, -0.0176741778850555 ]
  - [  -0.0263068806380033, -0.0123440241441131, -0.0167860127985477 ]
  - [  -0.0261270590126514, -0.0112614566460252, -0.0162814259529114 ]
  - [  -0.0259519796818495, -0.0113682346418500, -0.0164709985256195 ]
  - [  -0.0260311290621758, -0.0112230060622096, -0.0163717828691006 ]
  - [  -0.0259105600416660, -0.0114732058718801, -0.0164436623454094 ]
  - [  -0.0259715691208839, -0.0113891083747149, -0.0165055431425571 ]
  - [   0.0061968602240086,  0.0027831792831421, -0.0030528623610735 ]
  - [   0.0061201937496662,  0.0019463011994958, -0.0032912082970142 ]
  - [   0.0039672087877989,  0.0039211455732584, -0.0045272801071405 ]
  - [   0.0053833574056625,  0.0024424260482192, -0.0026175267994404 ]
  - [   0.0063254777342081,  0.0027722064405680, -0.0030948240309954 ]
  - [   0.0063434224575758,  0.0027193818241358, -0.0029884688556194 ]
  - [   0.0061069466173649,  0.0029330365359783, -0.0031327717006207 ]
  - [   0.0063122808933258,  0.0027669398114085, -0.0030715726315975 ]
  - [  -0.0475477613508701, -0.0210440382361412,  0.0054428167641163 ]
  - [  -0.0489471964538097, -0.0204233266413212,  0.0047131702303886 ]
  - [  -0.0522072203457355, -0.0181035883724689,  0.0089776962995529 ]
  - [  -0.0484122000634670, -0.0212142914533615,  0.0056537948548794 ]
  - [  -0.0481098294258118, -0.0212612170726061,  0.0053061544895172 ]
  - [  -0.0482151471078396, -0.0210725441575050,  0.0054498277604580 ]
  - [  -0.0482554547488689, -0.0210905410349369,  0.0053995475172997 ]
  - [  -0.0482520833611488, -0.0211841426789761,  0.0054463706910610 ]
  - [   0.0476545691490173,  0.0212619155645370, -0.0081438012421131 ]
  - [   0.0482023134827614,  0.0211428031325340, -0.0054970458149910 ]
  - [   0.0481417402625084,  0.0211038012057543, -0.0054986253380775 ]
  - [   0.0481587611138821,  0.0210960991680622, -0.0053305104374886 ]
  - [   0.0478292703628540,  0.0208801534026861, -0.0077112242579460 ]
  - [   0.0479588545858860,  0.0210336204618216, -0.0053584724664688 ]
  - [   0.0478872172534466,  0.0208842922002077, -0.0053534731268883 ]
  - [   0.0482478775084019,  0.0208920873701572, -0.0056487172842026 ]
- atom:    1
  displacement:
    [   0.0030628311715143,  0.0013424591607176,  0.0094242701901317 ]
  forces:
  - [  -0.0127643346786499, -0.0055947704240680, -0.0271267667412758 ]
  - [  -0.0062831863760948, -0.0027379775419831,  0.0031753238290548 ]
  - [  -0.0062708389014006, -0.0027652634307742,  0.0031748265028000 ]
  - [  -0.0062652043998241, -0.0027467515319586,  0.0035163164138794 ]
  - [  -0.0068207625299692, -0.0029896963387728,  0.0017130281776190 ]
  - [  -0.0062799584120512, -0.0027565639466047,  0.0030422769486904 ]
  - [  -0.0062822513282299, -0.0027500465512276,  0.0030412320047617 ]
  - [  -0.0063634496182203, -0.0027902107685804,  0.0030212160199881 ]
  - [   0.0257542990148067,  0.0112871676683426,  0.0163289643824100 ]
  - [   0.0257814638316631,  0.0116862449795008,  0.0174038484692574 ]
  - [   0.0260651856660843,  0.0110362358391285,  0.0174034386873245 ]
  - [   0.0257626287639141,  0.0112909534946084,  0.0163110196590424 ]
  - [   0.0262204408645630,  0.0114922560751438,  0.0160435251891613 ]
  - [   0.0260309129953384,  0.0114075960591435,  0.0165804959833622 ]
  - [   0.0260292664170265,  0.0114094950258732,  0.0165807679295540 ]
  - [   0.0262260586023331,  0.0114938598126173,  0.0162178725004196 ]
  - [  -0.0255055613815784, -0.0111785689368844, -0.0165685079991817 ]
  - [  -0.0252213552594185, -0.0121308565139771, -0.0156887583434582 ]
  - [  -0.0260123610496521, -0.0103243896737695, -0.0156873725354671 ]
  - [  -0.0259339846670628, -0.0113665647804737, -0.0165417678654194 ]
  - [  -0.0260225087404251, -0.0114051820710301, -0.0164759568870068 ]
  - [  -0.0257000122219324, -0.0116157205775380, -0.0164830647408962 ]
  - [  -0.0259589813649654, -0.0110256671905518, -0.0164824798703194 ]
  - [  -0.0259684957563877, -0.0113817807286978, -0.0163680836558342 ]
  - [   0.0063227955251932,  0.0027721719816327, -0.0030254907906055 ]
  - [   0.0066891107708216,  0.0050194626674056, -0.0019508767873049 ]
  - [   0.0082237459719181,  0.0015172446146607, -0.0019516069442034 ]
  - [   0.0061991959810257,  0.0027173580601811, -0.0028367359191179 ]
  - [   0.0063255876302719,  0.0027728565037251, -0.0030641220510006 ]
  - [   0.0062259547412395,  0.0029759434983134, -0.0032469835132360 ]
  - [   0.0064068995416164,  0.0025619128718972, -0.0032486096024513 ]
  - [   0.0063095949590206,  0.0027651973068714, -0.0031248256564140 ]
  - [  -0.0484259277582169, -0.0212230216711760,  0.0053111873567104 ]
  - [  -0.0478119589388371, -0.0263674464076757,  0.0084492489695549 ]
  - [  -0.0517905093729496, -0.0172860734164715,  0.0084493178874254 ]
  - [  -0.0478091239929199, -0.0209544338285923,  0.0053206048905849 ]
  - [  -0.0481195710599422, -0.0210889838635921,  0.0051953978836536 ]
  - [  -0.0483666248619556, -0.0212052185088396,  0.0052854157984257 ]
  - [  -0.0483730211853981, -0.0211929231882095,  0.0052854232490063 ]
  - [  -0.0484699308872223, -0.0212437976151705,  0.0054977834224701 ]
  - [   0.0505833774805069,  0.0221701022237539,  0.0069322362542152 ]
  - [   0.0483406856656075,  0.0211961399763823, -0.0054666027426720 ]
  - [   0.0483474358916283,  0.0211804434657097, -0.0054667741060257 ]
  - [   0.0483189076185226,  0.0211779028177261, -0.0055419690907001 ]
  - [   0.0518640056252480,  0.0227323509752750,  0.0036036819219589 ]
  - [   0.0483752489089966,  0.0210533924400806, -0.0054770484566689 ]
  - [   0.0482688993215561,  0.0213039088994265, -0.0054765231907368 ]
  - [   0.0481481961905956,  0.0211017318069935, -0.0055834762752056 ]
- atom:    1
  displacement:
    [  -0.0030628311715143, -0.0013424591607176, -0.0094242701901317 ]
  forces:
  - [   0.0001869611442089,  0.0000814683735371,  0.0335485152900219 ]
  - [  -0.0063488036394119, -0.0027982769533992,  0.0029834695160389 ]
  - [  -0.0063597150146961, -0.0027725137770176,  0.0029829572886229 ]
  - [  -0.0063663087785244, -0.0027911588549614,  0.0026459489017725 ]
  - [  -0.0058222245424986, -0.0025521414354444,  0.0044552907347679 ]
  - [  -0.0063527803868055, -0.0027812169864774,  0.0031216293573380 ]
  - [  -0.0063499640673399, -0.0027869073674083,  0.0031204875558615 ]
  - [  -0.0062648244202137, -0.0027469107881188,  0.0031395871192217 ]
  - [   0.0261982232332230,  0.0114815607666969,  0.0165814533829689 ]
  - [   0.0261419080197811,  0.0110775828361511,  0.0155229717493057 ]
  - [   0.0258616078644991,  0.0117138726636767,  0.0155228599905968 ]
  - [   0.0261650234460831,  0.0114674307405949,  0.0166055262088776 ]
  - [   0.0257121417671442,  0.0112694930285215,  0.0168838165700436 ]
  - [   0.0258950907737017,  0.0113528342917562,  0.0163354724645615 ]
  - [   0.0258968472480774,  0.0113467369228601,  0.0163357555866241 ]
  - [   0.0257055386900902,  0.0112657640129328,  0.0167027041316032 ]
  - [  -0.0263940449804068, -0.0115679409354925, -0.0163584426045418 ]
  - [  -0.0267012976109982, -0.0106422491371632, -0.0172429382801056 ]
  - [  -0.0259207505732775, -0.0124218296259642, -0.0172418244183064 ]
  - [  -0.0259969271719456, -0.0113943060860038, -0.0163798779249191 ]
  - [  -0.0259076189249754, -0.0113549418747425, -0.0164392031729221 ]
  - [  -0.0262260567396879, -0.0111474841833115, -0.0164276994764805 ]
  - [  -0.0259711518883705, -0.0117299584671855, -0.0164272412657738 ]
  - [  -0.0259614363312721, -0.0113787278532982, -0.0165439471602440 ]
  - [   0.0063050333410501,  0.0027643693611026, -0.0031328257173300 ]
  - [   0.0059456974267960,  0.0005043791607022, -0.0042128469794989 ]
  - [   0.0043999329209328,  0.0040303152054548, -0.0042135845869780 ]
  - [   0.0064175818115473,  0.0028131650760770, -0.0033191572874784 ]
  - [   0.0063047148287296,  0.0027637537568808, -0.0030954908579588 ]
  - [   0.0064017772674561,  0.0025797160342336, -0.0029369369149208 ]
  - [   0.0062344800680876,  0.0029595596715808, -0.0029383581131697 ]
  - [   0.0063248556107283,  0.0027719149366021, -0.0030397772789001 ]
  - [  -0.0480839423835278, -0.0210725590586662,  0.0055816136300564 ]
  - [  -0.0487017892301083, -0.0159719064831734,  0.0024047940969467 ]
  - [  -0.0447496809065342, -0.0249841678887606,  0.0024054981768131 ]
  - [  -0.0486905947327614, -0.0213408023118973,  0.0055684819817543 ]
  - [  -0.0483835414052010, -0.0212042815983295,  0.0056876726448536 ]
  - [  -0.0481345653533936, -0.0210861638188362,  0.0055952332913876 ]
  - [  -0.0481282323598862, -0.0211027432233095,  0.0055954232811928 ]
  - [  -0.0480326265096664, -0.0210524983704090,  0.0053932629525661 ]
  - [   0.0457760579884052,  0.0200632251799107, -0.0183146297931671 ]
  - [   0.0481591001152992,  0.0210980474948883, -0.0054187104105949 ]
  - [   0.0481529906392097,  0.0211133528500795, -0.0054182894527912 ]
  - [   0.0481847524642944,  0.0211191102862358, -0.0053405798971653 ]
  - [   0.0447682775557041,  0.0196217261254787, -0.0141540504992008 ]
  - [   0.0481205396354198,  0.0212381444871426, -0.0054093413054943 ]
  - [   0.0482324175536633,  0.0209913402795792, -0.0054089315235615 ]
  - [   0.0483572930097580,  0.0211928058415651, -0.0053057111799717 ]
- atom:    9
  displacement:
    [   0.0100000000000000,  0.0000000000000000,  0.0000000000000000 ]
  forces:
  - [  -0.0066926777362823, -0.0029832664877176,  0.0030030552297831 ]
  - [  -0.0054227877408266, -0.0031757848337293,  0.0026663187891245 ]
  - [  -0.0061606187373400, -0.0026265066117048,  0.0031144786626101 ]
  - [  -0.0065704025328159, -0.0027631912380457,  0.0029486715793610 ]
  - [  -0.0062531232833862, -0.0028386907652020,  0.0033423863351345 ]
  - [  -0.0062257200479507, -0.0026938384398818,  0.0031144078820944 ]
  - [  -0.0062695425003767, -0.0027929525822401,  0.0031390171498060 ]
  - [  -0.0064102541655302, -0.0023906677961349,  0.0033347439020872 ]
  - [   0.0093967374414206,  0.0116629190742970,  0.0162899829447269 ]
  - [   0.0268525667488575,  0.0114038605242968,  0.0164675079286098 ]
  - [   0.0263267457485199,  0.0118887349963188,  0.0165472924709320 ]
  - [   0.0259384401142597,  0.0115189682692289,  0.0164725668728352 ]
  - [   0.0258305519819260,  0.0113649293780327,  0.0164863280951977 ]
  - [   0.0259452648460865,  0.0113609088584781,  0.0163971185684204 ]
  - [   0.0259295664727688,  0.0113749494776130,  0.0164298824965954 ]
  - [   0.0259887874126434,  0.0113860862329602,  0.0164829045534134 ]
  - [  -0.0258324313908815, -0.0113145187497139, -0.0156051740050316 ]
  - [  -0.0258323885500431, -0.0113497618585825, -0.0165222473442554 ]
  - [  -0.0258508287370205, -0.0113308178260922, -0.0164942778646946 ]
  - [  -0.0260379500687122, -0.0114723723381758, -0.0164329037070274 ]
  - [  -0.0249741468578577, -0.0112986015155911, -0.0147989690303802 ]
  - [  -0.0256914794445038, -0.0115312589332461, -0.0166364908218384 ]
  - [  -0.0259498283267021, -0.0112899830564857, -0.0164595097303391 ]
  - [  -0.0259530395269394, -0.0115655232220888, -0.0165588036179543 ]
  - [   0.0080271773040295,  0.0034147817641497, -0.0032598562538624 ]
  - [   0.0083403065800667,  0.0021939733996987, -0.0028592292219400 ]
  - [   0.0066535864025354,  0.0029447050765157, -0.0032698623836040 ]
  - [   0.0064735487103462,  0.0026533687487245, -0.0030840709805489 ]
  - [   0.0063037797808647,  0.0027574142441154, -0.0031353011727333 ]
  - [   0.0063816718757153,  0.0027521364390850, -0.0028194505721331 ]
  - [   0.0062611065804958,  0.0027218284085393, -0.0030509438365698 ]
  - [   0.0063239131122828,  0.0027772216126323, -0.0030875038355589 ]
  - [  -0.0483865179121494, -0.0212014578282833,  0.0058952718973160 ]
  - [  -0.0481607355177402, -0.0212094411253929,  0.0054863393306732 ]
  - [  -0.0482536852359772, -0.0210927054286003,  0.0054714716970921 ]
  - [  -0.0484136939048767, -0.0210288912057877,  0.0055916942656040 ]
  - [  -0.0476180464029312, -0.0207417011260986,  0.0059032626450062 ]
  - [  -0.0456529632210732, -0.0243092179298401,  0.0023525170981884 ]
  - [  -0.0485332459211349, -0.0209975279867649,  0.0059219747781754 ]
  - [  -0.0499636195600033, -0.0218141674995422,  0.0056424252688885 ]
  - [   0.0535105690360069,  0.0237140543758869, -0.0063709020614624 ]
  - [   0.0510869584977627,  0.0200169198215008, -0.0051720887422562 ]
  - [   0.0483972206711769,  0.0220762938261032, -0.0055574402213097 ]
  - [   0.0480438657104969,  0.0212585981935263, -0.0053503289818764 ]
  - [   0.0483047068119049,  0.0211628973484039, -0.0054496787488461 ]
  - [   0.0482996478676796,  0.0209898017346859, -0.0055136978626251 ]
  - [   0.0481766238808632,  0.0212332587689161, -0.0054919421672821 ]
  - [   0.0483163893222809,  0.0211842078715563, -0.0055209323763847 ]
- atom:    9
  displacement:
    [  -0.0100000000000000,  0.0000000000000000,  0.0000000000000000 ]
  forces:
  - [  -0.0059413295239210, -0.0025573223829269,  0.0031694304198027 ]
  - [  -0.0072085056453943, -0.0023505082353950,  0.0035120137035847 ]
  - [  -0.0064656455069780, -0.0028983177617192,  0.0030365381389856 ]
  - [  -0.0060577075928450, -0.0027741547673941,  0.0032105725258589 ]
  - [  -0.0063801743090153, -0.0026987874880433,  0.0028242785483599 ]
  - [  -0.0064092632383108, -0.0028441091999412,  0.0030514243990183 ]
  - [  -0.0063617713749409, -0.0027453061193228,  0.0030216146260500 ]
  - [  -0.0062150619924068, -0.0031488453969359,  0.0028269160538912 ]
  - [   0.0424807816743851,  0.0111002735793591,  0.0167522691190243 ]
  - [   0.0250858962535858,  0.0113549204543233,  0.0164485201239586 ]
  - [   0.0256060995161533,  0.0108756283298135,  0.0163714587688446 ]
  - [   0.0259910523891449,  0.0112430462613702,  0.0164397843182087 ]
  - [   0.0260993242263794,  0.0113956611603498,  0.0164282247424126 ]
  - [   0.0259842462837696,  0.0113986544311047,  0.0165184997022152 ]
  - [   0.0259986631572247,  0.0113847739994526,  0.0164858959615231 ]
  - [   0.0259416773915291,  0.0113732218742371,  0.0164314359426498 ]
  - [  -0.0261058844625950, -0.0114460792392492, -0.0173224993050098 ]
  - [  -0.0260984748601913, -0.0114111555740237, -0.0163949504494667 ]
  - [  -0.0260778069496155, -0.0114285461604595, -0.0164216794073582 ]
  - [  -0.0258909482508898, -0.0112868230789900, -0.0164826437830925 ]
  - [  -0.0269417464733124, -0.0114619676023722, -0.0181230381131172 ]
  - [  -0.0262338779866695, -0.0112396730110049, -0.0162839367985725 ]
  - [  -0.0259837806224823, -0.0114661762490869, -0.0164581760764122 ]
  - [  -0.0259777568280697, -0.0111913401633501, -0.0163550451397896 ]
  - [   0.0045679137110710,  0.0021006651222706, -0.0028907079249620 ]
  - [   0.0043337699025869,  0.0033193137496710, -0.0032880827784538 ]
  - [   0.0059709623456001,  0.0025809025391936, -0.0028990153223276 ]
  - [   0.0061490610241890,  0.0028898445889354, -0.0030790828168392 ]
  - [   0.0063273720443249,  0.0027797603979707, -0.0030242409557104 ]
  - [   0.0062477234750986,  0.0027885232120752, -0.0033394638448954 ]
  - [   0.0063710752874613,  0.0028131213039160, -0.0031125843524933 ]
  - [   0.0063100531697273,  0.0027593187987804, -0.0030729062855244 ]
  - [  -0.0481163859367371, -0.0210913047194481,  0.0049868151545525 ]
  - [  -0.0483409725129604, -0.0210831556469202,  0.0054005235433578 ]
  - [  -0.0482443124055862, -0.0212004929780960,  0.0054161399602890 ]