# Thermal properties / unit cell (natom)

unit:
  temperature:   K
  free_energy:   kJ/mol
  entropy:       J/K/mol
  heat_capacity: J/K/mol

natom: 6    
cutoff_frequency: 0.00000
num_modes: 202500
num_integrated_modes: 202490

zero_point_energy:      22.0882216

thermal_properties:
- temperature:         0.0000000
  free_energy:        22.0882216
  entropy:             0.0000000
  heat_capacity:       0.0000000
  energy:             22.0882216

- temperature:        10.0000000
  free_energy:        22.0861811
  entropy:             0.7295709
  heat_capacity:       2.0263864
  energy:             22.0934768

- temperature:        20.0000000
  free_energy:        22.0618121
  entropy:             4.8253448
  heat_capacity:      12.0247656
  energy:             22.1583190

- temperature:        30.0000000
  free_energy:        21.9794209
  entropy:            11.9575634
  heat_capacity:      23.5977355
  energy:             22.3381478

- temperature:        40.0000000
  free_energy:        21.8196127
  entropy:            20.0570243
  heat_capacity:      32.8107197
  energy:             22.6218937

- temperature:        50.0000000
  free_energy:        21.5780646
  entropy:            28.2435135
  heat_capacity:      40.7673850
  energy:             22.9902403

- temperature:        60.0000000
  free_energy:        21.2549803
  entropy:            36.3630074
  heat_capacity:      48.5503223
  energy:             23.4367607

- temperature:        70.0000000
  free_energy:        20.8509495
  entropy:            44.4383653
  heat_capacity:      56.4367012
  energy:             23.9616351

- temperature:        80.0000000
  free_energy:        20.3662926
  entropy:            52.4887025
  heat_capacity:      64.2890250
  energy:             24.5653888

- temperature:        90.0000000
  free_energy:        19.8012948
  entropy:            60.5026152
  heat_capacity:      71.8776135
  energy:             25.2465301

- temperature:       100.0000000
  free_energy:        19.1564624
  entropy:            68.4497441
  heat_capacity:      79.0175960
  energy:             26.0014368

- temperature:       110.0000000
  free_energy:        18.4326421
  entropy:            76.2943113
  heat_capacity:      85.6000975
  energy:             26.8250164

- temperature:       120.0000000
  free_energy:        17.6310287
  entropy:            84.0033612
  heat_capacity:      91.5820807
  energy:             27.7114320

- temperature:       130.0000000
  free_energy:        16.7531159
  entropy:            91.5503583
  heat_capacity:      96.9663120
  energy:             28.6546625

- temperature:       140.0000000
  free_energy:        15.8006268
  entropy:            98.9159920
  heat_capacity:     101.7832313
  energy:             29.6488657

- temperature:       150.0000000
  free_energy:        14.7754434
  entropy:           106.0876101
  heat_capacity:     106.0776722
  energy:             30.6885849

- temperature:       160.0000000
  free_energy:        13.6795454
  entropy:           113.0581279
  heat_capacity:     109.9001453
  energy:             31.7688459

- temperature:       170.0000000
  free_energy:        12.5149605
  entropy:           119.8248475
  heat_capacity:     113.3015614
  energy:             32.8851846

- temperature:       180.0000000
  free_energy:        11.2837260
  entropy:           126.3883848
  heat_capacity:     116.3302922
  energy:             34.0336353

- temperature:       190.0000000
  free_energy:         9.9878602
  entropy:           132.7517706
  heat_capacity:     119.0307196
  energy:             35.2106966

- temperature:       200.0000000
  free_energy:         8.6293421
  entropy:           138.9197326
  heat_capacity:     121.4426876
  energy:             36.4132887

- temperature:       210.0000000
  free_energy:         7.2100975
  entropy:           144.8981402
  heat_capacity:     123.6014726
  energy:             37.6387069

- temperature:       220.0000000
  free_energy:         5.7319893
  entropy:           150.6935842
  heat_capacity:     125.5380306
  energy:             38.8845778

- temperature:       230.0000000
  free_energy:         4.1968124
  entropy:           156.3130646
  heat_capacity:     127.2793771
  energy:             40.1488172

- temperature:       240.0000000
  free_energy:         2.6062906
  entropy:           161.7637614
  heat_capacity:     128.8490129
  energy:             41.4295933

- temperature:       250.0000000
  free_energy:         0.9620757
  entropy:           167.0528708
  heat_capacity:     130.2673489
  energy:             42.7252934

- temperature:       260.0000000
  free_energy:        -0.7342519
  entropy:           172.1874891
  heat_capacity:     131.5521043
  energy:             44.0344953

- temperature:       270.0000000
  free_energy:        -2.4811822
  entropy:           177.1745330
  heat_capacity:     132.7186674
  energy:             45.3559418

- temperature:       280.0000000
  free_energy:        -4.2772729
  entropy:           182.0206870
  heat_capacity:     133.7804156
  energy:             46.6885194

- temperature:       290.0000000
  free_energy:        -6.1211477
  entropy:           186.7323702
  heat_capacity:     134.7489945
  energy:             48.0312397

- temperature:       300.0000000
  free_energy:        -8.0114926
  entropy:           191.3157178
  heat_capacity:     135.6345593
  energy:             49.3832227

- temperature:       310.0000000
  free_energy:        -9.9470538
  entropy:           195.7765730
  heat_capacity:     136.4459829
  energy:             50.7436838

- temperature:       320.0000000
  free_energy:       -11.9266343
  entropy:           200.1204861
  heat_capacity:     137.1910339
  energy:             52.1119213

- temperature:       330.0000000
  free_energy:       -13.9490913
  entropy:           204.3527193
  heat_capacity:     137.8765290
  energy:             53.4873061

- temperature:       340.0000000
  free_energy:       -16.0133330
  entropy:           208.4782542
  heat_capacity:     138.5084628
  energy:             54.8692734

- temperature:       350.0000000
  free_energy:       -18.1183164
  entropy:           212.5018026
  heat_capacity:     139.0921190
  energy:             56.2573145

- temperature:       360.0000000
  free_energy:       -20.2630440
  entropy:           216.4278180
  heat_capacity:     139.6321654
  energy:             57.6509705

- temperature:       370.0000000
  free_energy:       -22.4465617
  entropy:           220.2605081
  heat_capacity:     140.1327351
  energy:             59.0498263

- temperature:       380.0000000
  free_energy:       -24.6679564
  entropy:           224.0038479
  heat_capacity:     140.5974956
  energy:             60.4535058

- temperature:       390.0000000
  free_energy:       -26.9263534
  entropy:           227.6615926
  heat_capacity:     141.0297091
  energy:             61.8616677

- temperature:       400.0000000
  free_energy:       -29.2209147
  entropy:           231.2372900
  heat_capacity:     141.4322828
  energy:             63.2740013

- temperature:       410.0000000
  free_energy:       -31.5508369
  entropy:           234.7342931
  heat_capacity:     141.8078139
  energy:             64.6902233

- temperature:       420.0000000
  free_energy:       -33.9153489
  entropy:           238.1557715
  heat_capacity:     142.1586267
  energy:             66.1100752

- temperature:       430.0000000
  free_energy:       -36.3137106
  entropy:           241.5047232
  heat_capacity:     142.4868061
  energy:             67.5333204

- temperature:       440.0000000
  free_energy:       -38.7452111
  entropy:           244.7839845
  heat_capacity:     142.7942257
  energy:             68.9597421

- temperature:       450.0000000
  free_energy:       -41.2091669
  entropy:           247.9962406
  heat_capacity:     143.0825727
  energy:             70.3891413

- temperature:       460.0000000
  free_energy:       -43.7049210
  entropy:           251.1440350
  heat_capacity:     143.3533689
  energy:             71.8213351

- temperature:       470.0000000
  free_energy:       -46.2318408
  entropy:           254.2297779
  heat_capacity:     143.6079898
  energy:             73.2561548

- temperature:       480.0000000
  free_energy:       -48.7893174
  entropy:           257.2557552
  heat_capacity:     143.8476807
  energy:             74.6934451

- temperature:       490.0000000
  free_energy:       -51.3767639
  entropy:           260.2241355
  heat_capacity:     144.0735712
  energy:             76.1330624

- temperature:       500.0000000
  free_energy:       -53.9936150
  entropy:           263.1369779
  heat_capacity:     144.2866873
  energy:             77.5748740

- temperature:       510.0000000
  free_energy:       -56.6393249
  entropy:           265.9962385
  heat_capacity:     144.4879627
  energy:             79.0187567

- temperature:       520.0000000
  free_energy:       -59.3133673
  entropy:           268.8037768
  heat_capacity:     144.6782484
  energy:             80.4645966

- temperature:       530.0000000
  free_energy:       -62.0152339
  entropy:           271.5613615
  heat_capacity:     144.8583213
  energy:             81.9122877

- temperature:       540.0000000
  free_energy:       -64.7444337
  entropy:           274.2706760
  heat_capacity:     145.0288915
  energy:             83.3617314

- temperature:       550.0000000
  free_energy:       -67.5004919
  entropy:           276.9333234
  heat_capacity:     145.1906091
  energy:             84.8128360

- temperature:       560.0000000
  free_energy:       -70.2829497
  entropy:           279.5508316
  heat_capacity:     145.3440702
  energy:             86.2655160

- temperature:       570.0000000
  free_energy:       -73.0913629
  entropy:           282.1246572
  heat_capacity:     145.4898221
  energy:             87.7196917

- temperature:       580.0000000
  free_energy:       -75.9253018
  entropy:           284.6561902
  heat_capacity:     145.6283679
  energy:             89.1752885

- temperature:       590.0000000
  free_energy:       -78.7843502
  entropy:           287.1467572
  heat_capacity:     145.7601706
  energy:             90.6322366

- temperature:       600.0000000
  free_energy:       -81.6681047
  entropy:           289.5976258
  heat_capacity:     145.8856571
  energy:             92.0904708

- temperature:       610.0000000
  free_energy:       -84.5761744
  entropy:           292.0100072
  heat_capacity:     146.0052212
  energy:             93.5499300

- temperature:       620.0000000
  free_energy:       -87.5081804
  entropy:           294.3850598
  heat_capacity:     146.1192269
  energy:             95.0105567

- temperature:       630.0000000
  free_energy:       -90.4637549
  entropy:           296.7238921
  heat_capacity:     146.2280107
  energy:             96.4722971

- temperature:       640.0000000
  free_energy:       -93.4425410
  entropy:           299.0275650
  heat_capacity:     146.3318844
  energy:             97.9351006

- temperature:       650.0000000
  free_energy:       -96.4441924
  entropy:           301.2970951
  heat_capacity:     146.4311369
  energy:             99.3989194

- temperature:       660.0000000
  free_energy:       -99.4683724
  entropy:           303.5334563
  heat_capacity:     146.5260364
  energy:            100.8637088

- temperature:       670.0000000
  free_energy:      -102.5147541
  entropy:           305.7375829
  heat_capacity:     146.6168320
  energy:            102.3294265

- temperature:       680.0000000
  free_energy:      -105.5830196
  entropy:           307.9103708
  heat_capacity:     146.7037554
  energy:            103.7960325

- temperature:       690.0000000
  free_energy:      -108.6728599
  entropy:           310.0526801
  heat_capacity:     146.7870223
  energy:            105.2634894

- temperature:       700.0000000
  free_energy:      -111.7839743
  entropy:           312.1653369
  heat_capacity:     146.8668337
  energy:            106.7317615

- temperature:       710.0000000
  free_energy:      -114.9160704
  entropy:           314.2491346
  heat_capacity:     146.9433769
  energy:            108.2008152

- temperature:       720.0000000
  free_energy:      -118.0688634
  entropy:           316.3048362
  heat_capacity:     147.0168270
  energy:            109.6706187

- temperature:       730.0000000
  free_energy:      -121.2420760
  entropy:           318.3331752
  heat_capacity:     147.0873474
  energy:            111.1411419

- temperature:       740.0000000
  free_energy:      -124.4354380
  entropy:           320.3348573
  heat_capacity:     147.1550910
  energy:            112.6123564

- temperature:       750.0000000
  free_energy:      -127.6486865
  entropy:           322.3105620
  heat_capacity:     147.2202010
  energy:            114.0842350

- temperature:       760.0000000
  free_energy:      -130.8815649
  entropy:           324.2609433
  heat_capacity:     147.2828113
  energy:            115.5567521

- temperature:       770.0000000
  free_energy:      -134.1338231
  entropy:           326.1866316
  heat_capacity:     147.3430477
  energy:            117.0298833

- temperature:       780.0000000
  free_energy:      -137.4052172
  entropy:           328.0882343
  heat_capacity:     147.4010281
  energy:            118.5036055

- temperature:       790.0000000
  free_energy:      -140.6955094
  entropy:           329.9663369
  heat_capacity:     147.4568631
  energy:            119.9778967

- temperature:       800.0000000
  free_energy:      -144.0044675
  entropy:           331.8215043
  heat_capacity:     147.5106568
  energy:            121.4527360

- temperature:       810.0000000
  free_energy:      -147.3318649
  entropy:           333.6542818
  heat_capacity:     147.5625071
  energy:            122.9281034

- temperature:       820.0000000
  free_energy:      -150.6774803
  entropy:           335.4651954
  heat_capacity:     147.6125060
  energy:            124.4039799

- temperature:       830.0000000
  free_energy:      -154.0410976
  entropy:           337.2547533
  heat_capacity:     147.6607403
  energy:            125.8803476

- temperature:       840.0000000
  free_energy:      -157.4225058
  entropy:           339.0234463
  heat_capacity:     147.7072917
  energy:            127.3571891

- temperature:       850.0000000
  free_energy:      -160.8214986
  entropy:           340.7717490
  heat_capacity:     147.7522371
  energy:            128.8344881

- temperature:       860.0000000
  free_energy:      -164.2378743
  entropy:           342.5001199
  heat_capacity:     147.7956495
  energy:            130.3122288

- temperature:       870.0000000
  free_energy:      -167.6714360
  entropy:           344.2090025
  heat_capacity:     147.8375973
  energy:            131.7903962

- temperature:       880.0000000
  free_energy:      -171.1219908
  entropy:           345.8988260
  heat_capacity:     147.8781455
  energy:            133.2689760

- temperature:       890.0000000
  free_energy:      -174.5893504
  entropy:           347.5700056
  heat_capacity:     147.9173555
  energy:            134.7479546

- temperature:       900.0000000
  free_energy:      -178.0733302
  entropy:           349.2229434
  heat_capacity:     147.9552852
  energy:            136.2273189

- temperature:       910.0000000
  free_energy:      -181.5737497
  entropy:           350.8580286
  heat_capacity:     147.9919896
  energy:            137.7070563

- temperature:       920.0000000
  free_energy:      -185.0904325
  entropy:           352.4756383
  heat_capacity:     148.0275207
  energy:            139.1871548

- temperature:       930.0000000
  free_energy:      -188.6232055
  entropy:           354.0761381
  heat_capacity:     148.0619279
  energy:            140.6676029

- temperature:       940.0000000
  free_energy:      -192.1718994
  entropy:           355.6598820
  heat_capacity:     148.0952578
  energy:            142.1483897

- temperature:       950.0000000
  free_energy:      -195.7363484
  entropy:           357.2272137
  heat_capacity:     148.1275548
  energy:            143.6295046

- temperature:       960.0000000
  free_energy:      -199.3163901
  entropy:           358.7784662
  heat_capacity:     148.1588611
  energy:            145.1109375

- temperature:       970.0000000
  free_energy:      -202.9118652
  entropy:           360.3139628
  heat_capacity:     148.1892165
  energy:            146.5926787

- temperature:       980.0000000
  free_energy:      -206.5226178
  entropy:           361.8340170
  heat_capacity:     148.2186592
  energy:            148.0747188

- temperature:       990.0000000
  free_energy:      -210.1484951
  entropy:           363.3389334
  heat_capacity:     148.2472251
  energy:            149.5570490

- temperature:      1000.0000000
  free_energy:      -213.7893470
  entropy:           364.8290076
  heat_capacity:     148.2749488
  energy:            151.0396605
