phonopy:
  version: "2.37.1"
  frequency_unit_conversion_factor: 15.633302
  symmetry_tolerance: 1.00000e-05

space_group:
  type: "P1"
  number: 1
  Hall_symbol: "P 1"

primitive_matrix:
- [ -0.000000000000000, -1.000000000000000,  0.000000000000000 ]
- [  1.000000000000000,  0.000000000000000,  0.000000000000000 ]
- [  0.000000000000000,  0.000000000000000,  1.000000000000000 ]

supercell_matrix:
- [   3,   0,   0 ]
- [   0,   3,   0 ]
- [   0,   0,   1 ]

primitive_cell:
  lattice:
  - [     0.000001240017055,     4.367484744946892,     0.000000000000000 ] # a
  - [    -4.378787378186932,     0.000000000000000,     0.000000000000000 ] # b
  - [     0.007256507899819,    -0.003946896926634,    18.553022362037364 ] # c
  points:
  - symbol: Sn # 1
    coordinates: [  0.570685340980192,  0.199717590279569,  0.486664894188423 ]
    mass: 118.710000
  - symbol: Sn # 2
    coordinates: [  0.570922051915251,  0.198573910314423,  0.653795507559823 ]
    mass: 118.710000
  - symbol: Sn # 3
    coordinates: [  0.571008335114265,  0.198833782064947,  0.987542230011761 ]
    mass: 118.710000
  - symbol: Sn # 4
    coordinates: [  0.070737441410598,  0.699333696127933,  0.486952290366527 ]
    mass: 118.710000
  - symbol: Sn # 5
    coordinates: [  0.070659499900064,  0.699149970579279,  0.154244951789715 ]
    mass: 118.710000
  - symbol: Sn # 6
    coordinates: [  0.570784239202629,  0.199332373994932,  0.154377000662039 ]
    mass: 118.710000
  - symbol: Sn # 7
    coordinates: [  0.571434398051970,  0.198662735063350,  0.320904606383484 ]
    mass: 118.710000
  - symbol: Sn # 8
    coordinates: [  0.570934300653805,  0.199502879368803,  0.821031733970167 ]
    mass: 118.710000
  - symbol: Sn # 9
    coordinates: [  0.070667622319338,  0.698262251510136,  0.986965338868887 ]
    mass: 118.710000
  - symbol: Sn # 10
    coordinates: [  0.070926972534787,  0.698491591207269,  0.321088267331354 ]
    mass: 118.710000
  - symbol: Sn # 11
    coordinates: [  0.070403241933483,  0.699050426023592,  0.820895004924349 ]
    mass: 118.710000
  - symbol: Sn # 12
    coordinates: [  0.070642656100214,  0.698367678143902,  0.653957423009380 ]
    mass: 118.710000
  reciprocal_lattice: # without 2pi
  - [    -0.000000000000000,     0.228964737920833,     0.000048709056820 ] # a*
  - [    -0.228373728530764,     0.000000064839910,     0.000089322159418 ] # b*
  - [    -0.000000000000000,     0.000000000000000,     0.053899573906954 ] # c*

unit_cell:
  lattice:
  - [     4.378787378186932,     0.000000000000000,     0.000000000000000 ] # a
  - [     0.000001240017055,     4.367484744946892,     0.000000000000000 ] # b
  - [     0.007256507899819,    -0.003946896926634,    18.553022362037360 ] # c
  points:
  - symbol: Sn # 1
    coordinates: [  0.800282409720431,  0.570685340980192,  0.486664894188423 ]
    mass: 118.710000
    reduced_to: 1
  - symbol: Sn # 2
    coordinates: [  0.801426089685577,  0.570922051915251,  0.653795507559823 ]
    mass: 118.710000
    reduced_to: 2
  - symbol: Sn # 3
    coordinates: [  0.801166217935053,  0.571008335114266,  0.987542230011761 ]
    mass: 118.710000
    reduced_to: 3
  - symbol: Sn # 4
    coordinates: [  0.300666303872067,  0.070737441410598,  0.486952290366527 ]
    mass: 118.710000
    reduced_to: 4
  - symbol: Sn # 5
    coordinates: [  0.300850029420721,  0.070659499900064,  0.154244951789715 ]
    mass: 118.710000
    reduced_to: 5
  - symbol: Sn # 6
    coordinates: [  0.800667626005068,  0.570784239202629,  0.154377000662039 ]
    mass: 118.710000
    reduced_to: 6
  - symbol: Sn # 7
    coordinates: [  0.801337264936650,  0.571434398051971,  0.320904606383484 ]
    mass: 118.710000
    reduced_to: 7
  - symbol: Sn # 8
    coordinates: [  0.800497120631197,  0.570934300653805,  0.821031733970167 ]
    mass: 118.710000
    reduced_to: 8
  - symbol: Sn # 9
    coordinates: [  0.301737748489864,  0.070667622319338,  0.986965338868887 ]
    mass: 118.710000
    reduced_to: 9
  - symbol: Sn # 10
    coordinates: [  0.301508408792731,  0.070926972534787,  0.321088267331354 ]
    mass: 118.710000
    reduced_to: 10
  - symbol: Sn # 11
    coordinates: [  0.300949573976408,  0.070403241933483,  0.820895004924349 ]
    mass: 118.710000
    reduced_to: 11
  - symbol: Sn # 12
    coordinates: [  0.301632321856098,  0.070642656100214,  0.653957423009380 ]
    mass: 118.710000
    reduced_to: 12

supercell:
  lattice:
  - [    13.136362134560795,     0.000000000000000,     0.000000000000000 ] # a
  - [     0.000003720051166,    13.102454234840675,     0.000000000000000 ] # b
  - [     0.007256507899819,    -0.003946896926634,    18.553022362037360 ] # c
  points:
  - symbol: Sn # 1
    coordinates: [  0.266760803240144,  0.190228446993397,  0.486664894188423 ]
    mass: 118.710000
    reduced_to: 1
  - symbol: Sn # 2
    coordinates: [  0.600094136573477,  0.190228446993397,  0.486664894188423 ]
    mass: 118.710000
    reduced_to: 1
  - symbol: Sn # 3
    coordinates: [  0.933427469906810,  0.190228446993397,  0.486664894188423 ]
    mass: 118.710000
    reduced_to: 1
  - symbol: Sn # 4
    coordinates: [  0.266760803240144,  0.523561780326731,  0.486664894188423 ]
    mass: 118.710000
    reduced_to: 1
  - symbol: Sn # 5
    coordinates: [  0.600094136573477,  0.523561780326731,  0.486664894188423 ]
    mass: 118.710000
    reduced_to: 1
  - symbol: Sn # 6
    coordinates: [  0.933427469906810,  0.523561780326731,  0.486664894188423 ]
    mass: 118.710000
    reduced_to: 1
  - symbol: Sn # 7
    coordinates: [  0.266760803240144,  0.856895113660064,  0.486664894188423 ]
    mass: 118.710000
    reduced_to: 1
  - symbol: Sn # 8
    coordinates: [  0.600094136573477,  0.856895113660064,  0.486664894188423 ]
    mass: 118.710000
    reduced_to: 1
  - symbol: Sn # 9
    coordinates: [  0.933427469906810,  0.856895113660064,  0.486664894188423 ]
    mass: 118.710000
    reduced_to: 1
  - symbol: Sn # 10
    coordinates: [  0.267142029895192,  0.190307350638417,  0.653795507559823 ]
    mass: 118.710000
    reduced_to: 10
  - symbol: Sn # 11
    coordinates: [  0.600475363228526,  0.190307350638417,  0.653795507559823 ]
    mass: 118.710000
    reduced_to: 10
  - symbol: Sn # 12
    coordinates: [  0.933808696561859,  0.190307350638417,  0.653795507559823 ]
    mass: 118.710000
    reduced_to: 10
  - symbol: Sn # 13
    coordinates: [  0.267142029895192,  0.523640683971750,  0.653795507559823 ]
    mass: 118.710000
    reduced_to: 10
  - symbol: Sn # 14
    coordinates: [  0.600475363228526,  0.523640683971750,  0.653795507559823 ]
    mass: 118.710000
    reduced_to: 10
  - symbol: Sn # 15
    coordinates: [  0.933808696561859,  0.523640683971750,  0.653795507559823 ]
    mass: 118.710000
    reduced_to: 10
  - symbol: Sn # 16
    coordinates: [  0.267142029895192,  0.856974017305084,  0.653795507559823 ]
    mass: 118.710000
    reduced_to: 10
  - symbol: Sn # 17
    coordinates: [  0.600475363228526,  0.856974017305084,  0.653795507559823 ]
    mass: 118.710000
    reduced_to: 10
  - symbol: Sn # 18
    coordinates: [  0.933808696561859,  0.856974017305084,  0.653795507559823 ]
    mass: 118.710000
    reduced_to: 10
  - symbol: Sn # 19
    coordinates: [  0.267055405978351,  0.190336111704755,  0.987542230011761 ]
    mass: 118.710000
    reduced_to: 19
  - symbol: Sn # 20
    coordinates: [  0.600388739311684,  0.190336111704755,  0.987542230011761 ]
    mass: 118.710000
    reduced_to: 19
  - symbol: Sn # 21
    coordinates: [  0.933722072645018,  0.190336111704755,  0.987542230011761 ]
    mass: 118.710000
    reduced_to: 19
  - symbol: Sn # 22
    coordinates: [  0.267055405978351,  0.523669445038089,  0.987542230011761 ]
    mass: 118.710000
    reduced_to: 19
  - symbol: Sn # 23
    coordinates: [  0.600388739311684,  0.523669445038089,  0.987542230011761 ]
    mass: 118.710000
    reduced_to: 19
  - symbol: Sn # 24
    coordinates: [  0.933722072645018,  0.523669445038089,  0.987542230011761 ]
    mass: 118.710000
    reduced_to: 19
  - symbol: Sn # 25
    coordinates: [  0.267055405978351,  0.857002778371422,  0.987542230011761 ]
    mass: 118.710000
    reduced_to: 19
  - symbol: Sn # 26
    coordinates: [  0.600388739311684,  0.857002778371422,  0.987542230011761 ]
    mass: 118.710000
    reduced_to: 19
  - symbol: Sn # 27
    coordinates: [  0.933722072645018,  0.857002778371422,  0.987542230011761 ]
    mass: 118.710000
    reduced_to: 19
  - symbol: Sn # 28
    coordinates: [  0.100222101290689,  0.023579147136866,  0.486952290366527 ]
    mass: 118.710000
    reduced_to: 28
  - symbol: Sn # 29
    coordinates: [  0.433555434624022,  0.023579147136866,  0.486952290366527 ]
    mass: 118.710000
    reduced_to: 28
  - symbol: Sn # 30
    coordinates: [  0.766888767957355,  0.023579147136866,  0.486952290366527 ]
    mass: 118.710000
    reduced_to: 28
  - symbol: Sn # 31
    coordinates: [  0.100222101290689,  0.356912480470199,  0.486952290366527 ]
    mass: 118.710000
    reduced_to: 28
  - symbol: Sn # 32
    coordinates: [  0.433555434624022,  0.356912480470199,  0.486952290366527 ]
    mass: 118.710000
    reduced_to: 28
  - symbol: Sn # 33
    coordinates: [  0.766888767957355,  0.356912480470199,  0.486952290366527 ]
    mass: 118.710000
    reduced_to: 28
  - symbol: Sn # 34
    coordinates: [  0.100222101290689,  0.690245813803533,  0.486952290366527 ]
    mass: 118.710000
    reduced_to: 28
  - symbol: Sn # 35
    coordinates: [  0.433555434624022,  0.690245813803533,  0.486952290366527 ]
    mass: 118.710000
    reduced_to: 28
  - symbol: Sn # 36
    coordinates: [  0.766888767957355,  0.690245813803533,  0.486952290366527 ]
    mass: 118.710000
    reduced_to: 28
  - symbol: Sn # 37
    coordinates: [  0.100283343140240,  0.023553166633355,  0.154244951789715 ]
    mass: 118.710000
    reduced_to: 37
  - symbol: Sn # 38
    coordinates: [  0.433616676473574,  0.023553166633355,  0.154244951789715 ]
    mass: 118.710000
    reduced_to: 37
  - symbol: Sn # 39
    coordinates: [  0.766950009806907,  0.023553166633355,  0.154244951789715 ]
    mass: 118.710000
    reduced_to: 37
  - symbol: Sn # 40
    coordinates: [  0.100283343140240,  0.356886499966688,  0.154244951789715 ]
    mass: 118.710000
    reduced_to: 37
  - symbol: Sn # 41
    coordinates: [  0.433616676473574,  0.356886499966688,  0.154244951789715 ]
    mass: 118.710000
    reduced_to: 37
  - symbol: Sn # 42
    coordinates: [  0.766950009806907,  0.356886499966688,  0.154244951789715 ]
    mass: 118.710000
    reduced_to: 37
  - symbol: Sn # 43
    coordinates: [  0.100283343140240,  0.690219833300021,  0.154244951789715 ]
    mass: 118.710000
    reduced_to: 37
  - symbol: Sn # 44
    coordinates: [  0.433616676473574,  0.690219833300021,  0.154244951789715 ]
    mass: 118.710000
    reduced_to: 37
  - symbol: Sn # 45
    coordinates: [  0.766950009806907,  0.690219833300021,  0.154244951789715 ]
    mass: 118.710000
    reduced_to: 37
  - symbol: Sn # 46
    coordinates: [  0.266889208668356,  0.190261413067543,  0.154377000662039 ]
    mass: 118.710000
    reduced_to: 46
  - symbol: Sn # 47
    coordinates: [  0.600222542001689,  0.190261413067543,  0.154377000662039 ]
    mass: 118.710000
    reduced_to: 46
  - symbol: Sn # 48
    coordinates: [  0.933555875335023,  0.190261413067543,  0.154377000662039 ]
    mass: 118.710000
    reduced_to: 46
  - symbol: Sn # 49
    coordinates: [  0.266889208668356,  0.523594746400876,  0.154377000662039 ]
    mass: 118.710000
    reduced_to: 46
  - symbol: Sn # 50
    coordinates: [  0.600222542001689,  0.523594746400876,  0.154377000662039 ]
    mass: 118.710000
    reduced_to: 46
  - symbol: Sn # 51
    coordinates: [  0.933555875335023,  0.523594746400876,  0.154377000662039 ]
    mass: 118.710000
    reduced_to: 46
  - symbol: Sn # 52
    coordinates: [  0.266889208668356,  0.856928079734210,  0.154377000662039 ]
    mass: 118.710000
    reduced_to: 46
  - symbol: Sn # 53
    coordinates: [  0.600222542001689,  0.856928079734210,  0.154377000662039 ]
    mass: 118.710000
    reduced_to: 46
  - symbol: Sn # 54
    coordinates: [  0.933555875335023,  0.856928079734210,  0.154377000662039 ]
    mass: 118.710000
    reduced_to: 46
  - symbol: Sn # 55
    coordinates: [  0.267112421645550,  0.190478132683990,  0.320904606383484 ]
    mass: 118.710000
    reduced_to: 55
  - symbol: Sn # 56
    coordinates: [  0.600445754978883,  0.190478132683990,  0.320904606383484 ]
    mass: 118.710000
    reduced_to: 55
  - symbol: Sn # 57
    coordinates: [  0.933779088312217,  0.190478132683990,  0.320904606383484 ]
    mass: 118.710000
    reduced_to: 55
  - symbol: Sn # 58
    coordinates: [  0.267112421645550,  0.523811466017323,  0.320904606383484 ]
    mass: 118.710000
    reduced_to: 55
  - symbol: Sn # 59
    coordinates: [  0.600445754978883,  0.523811466017323,  0.320904606383484 ]
    mass: 118.710000
    reduced_to: 55
  - symbol: Sn # 60
    coordinates: [  0.933779088312217,  0.523811466017323,  0.320904606383484 ]
    mass: 118.710000
    reduced_to: 55
  - symbol: Sn # 61
    coordinates: [  0.267112421645550,  0.857144799350657,  0.320904606383484 ]
    mass: 118.710000
    reduced_to: 55
  - symbol: Sn # 62
    coordinates: [  0.600445754978883,  0.857144799350657,  0.320904606383484 ]
    mass: 118.710000
    reduced_to: 55
  - symbol: Sn # 63
    coordinates: [  0.933779088312217,  0.857144799350657,  0.320904606383484 ]
    mass: 118.710000
    reduced_to: 55
  - symbol: Sn # 64
    coordinates: [  0.266832373543732,  0.190311433551268,  0.821031733970167 ]
    mass: 118.710000
    reduced_to: 64
  - symbol: Sn # 65
    coordinates: [  0.600165706877066,  0.190311433551268,  0.821031733970167 ]
    mass: 118.710000
    reduced_to: 64
  - symbol: Sn # 66
    coordinates: [  0.933499040210399,  0.190311433551268,  0.821031733970167 ]
    mass: 118.710000
    reduced_to: 64
  - symbol: Sn # 67
    coordinates: [  0.266832373543732,  0.523644766884602,  0.821031733970167 ]
    mass: 118.710000
    reduced_to: 64
  - symbol: Sn # 68
    coordinates: [  0.600165706877066,  0.523644766884602,  0.821031733970167 ]
    mass: 118.710000
    reduced_to: 64
  - symbol: Sn # 69
    coordinates: [  0.933499040210399,  0.523644766884602,  0.821031733970167 ]
    mass: 118.710000
    reduced_to: 64
  - symbol: Sn # 70
    coordinates: [  0.266832373543732,  0.856978100217935,  0.821031733970167 ]
    mass: 118.710000
    reduced_to: 64
  - symbol: Sn # 71
    coordinates: [  0.600165706877066,  0.856978100217935,  0.821031733970167 ]
    mass: 118.710000
    reduced_to: 64
  - symbol: Sn # 72
    coordinates: [  0.933499040210399,  0.856978100217935,  0.821031733970167 ]
    mass: 118.710000
    reduced_to: 64
  - symbol: Sn # 73
    coordinates: [  0.100579249496621,  0.023555874106446,  0.986965338868887 ]
    mass: 118.710000
    reduced_to: 73
  - symbol: Sn # 74
    coordinates: [  0.433912582829955,  0.023555874106446,  0.986965338868887 ]
    mass: 118.710000
    reduced_to: 73
  - symbol: Sn # 75
    coordinates: [  0.767245916163288,  0.023555874106446,  0.986965338868887 ]
    mass: 118.710000
    reduced_to: 73
  - symbol: Sn # 76
    coordinates: [  0.100579249496621,  0.356889207439779,  0.986965338868887 ]
    mass: 118.710000
    reduced_to: 73
  - symbol: Sn # 77
    coordinates: [  0.433912582829955,  0.356889207439779,  0.986965338868887 ]
    mass: 118.710000
    reduced_to: 73
  - symbol: Sn # 78
    coordinates: [  0.767245916163288,  0.356889207439779,  0.986965338868887 ]
    mass: 118.710000
    reduced_to: 73
  - symbol: Sn # 79
    coordinates: [  0.100579249496621,  0.690222540773113,  0.986965338868887 ]
    mass: 118.710000
    reduced_to: 73
  - symbol: Sn # 80
    coordinates: [  0.433912582829955,  0.690222540773113,  0.986965338868887 ]
    mass: 118.710000
    reduced_to: 73
  - symbol: Sn # 81
    coordinates: [  0.767245916163288,  0.690222540773113,  0.986965338868887 ]
    mass: 118.710000
    reduced_to: 73
  - symbol: Sn # 82
    coordinates: [  0.100502802930910,  0.023642324178262,  0.321088267331354 ]
    mass: 118.710000
    reduced_to: 82
  - symbol: Sn # 83
    coordinates: [  0.433836136264244,  0.023642324178262,  0.321088267331354 ]
    mass: 118.710000
    reduced_to: 82
  - symbol: Sn # 84
    coordinates: [  0.767169469597577,  0.023642324178262,  0.321088267331354 ]
    mass: 118.710000
    reduced_to: 82
  - symbol: Sn # 85
    coordinates: [  0.100502802930910,  0.356975657511596,  0.321088267331354 ]
    mass: 118.710000
    reduced_to: 82
  - symbol: Sn # 86
    coordinates: [  0.433836136264244,  0.356975657511596,  0.321088267331354 ]
    mass: 118.710000
    reduced_to: 82
  - symbol: Sn # 87
    coordinates: [  0.767169469597577,  0.356975657511596,  0.321088267331354 ]
    mass: 118.710000
    reduced_to: 82
  - symbol: Sn # 88
    coordinates: [  0.100502802930910,  0.690308990844929,  0.321088267331354 ]
    mass: 118.710000
    reduced_to: 82
  - symbol: Sn # 89
    coordinates: [  0.433836136264244,  0.690308990844929,  0.321088267331354 ]
    mass: 118.710000
    reduced_to: 82
  - symbol: Sn # 90
    coordinates: [  0.767169469597577,  0.690308990844929,  0.321088267331354 ]
    mass: 118.710000
    reduced_to: 82
  - symbol: Sn # 91
    coordinates: [  0.100316524658803,  0.023467747311161,  0.820895004924349 ]
    mass: 118.710000
    reduced_to: 91
  - symbol: Sn # 92
    coordinates: [  0.433649857992136,  0.023467747311161,  0.820895004924349 ]
    mass: 118.710000
    reduced_to: 91
  - symbol: Sn # 93
    coordinates: [  0.766983191325469,  0.023467747311161,  0.820895004924349 ]
    mass: 118.710000
    reduced_to: 91
  - symbol: Sn # 94
    coordinates: [  0.100316524658803,  0.356801080644494,  0.820895004924349 ]
    mass: 118.710000
    reduced_to: 91
  - symbol: Sn # 95
    coordinates: [  0.433649857992136,  0.356801080644494,  0.820895004924349 ]
    mass: 118.710000
    reduced_to: 91
  - symbol: Sn # 96
    coordinates: [  0.766983191325469,  0.356801080644494,  0.820895004924349 ]
    mass: 118.710000
    reduced_to: 91
  - symbol: Sn # 97
    coordinates: [  0.100316524658803,  0.690134413977827,  0.820895004924349 ]
    mass: 118.710000
    reduced_to: 91
  - symbol: Sn # 98
    coordinates: [  0.433649857992136,  0.690134413977827,  0.820895004924349 ]
    mass: 118.710000
    reduced_to: 91
  - symbol: Sn # 99
    coordinates: [  0.766983191325469,  0.690134413977827,  0.820895004924349 ]
    mass: 118.710000
    reduced_to: 91
  - symbol: Sn # 100
    coordinates: [  0.100544107285366,  0.023547552033405,  0.653957423009380 ]
    mass: 118.710000
    reduced_to: 100
  - symbol: Sn # 101
    coordinates: [  0.433877440618699,  0.023547552033405,  0.653957423009380 ]
    mass: 118.710000
    reduced_to: 100
  - symbol: Sn # 102
    coordinates: [  0.767210773952033,  0.023547552033405,  0.653957423009380 ]
    mass: 118.710000
    reduced_to: 100
  - symbol: Sn # 103
    coordinates: [  0.100544107285366,  0.356880885366738,  0.653957423009380 ]
    mass: 118.710000
    reduced_to: 100
  - symbol: Sn # 104
    coordinates: [  0.433877440618699,  0.356880885366738,  0.653957423009380 ]
    mass: 118.710000
    reduced_to: 100
  - symbol: Sn # 105
    coordinates: [  0.767210773952033,  0.356880885366738,  0.653957423009380 ]
    mass: 118.710000
    reduced_to: 100
  - symbol: Sn # 106
    coordinates: [  0.100544107285366,  0.690214218700071,  0.653957423009380 ]
    mass: 118.710000
    reduced_to: 100
  - symbol: Sn # 107
    coordinates: [  0.433877440618699,  0.690214218700071,  0.653957423009380 ]
    mass: 118.710000
    reduced_to: 100
  - symbol: Sn # 108
    coordinates: [  0.767210773952033,  0.690214218700071,  0.653957423009380 ]
    mass: 118.710000
    reduced_to: 100

displacements:
- atom:    1
  displacement:
    [   0.0100000000000000,  0.0000000000000000,  0.0000000000000000 ]
  forces:
  - [  -0.0120148612186313,  0.0000070764217526,  0.0214508995413780 ]
  - [   0.0010549279395491,  0.0000069525558501,  0.0214760750532150 ]
  - [   0.0011154604144394,  0.0000073837582022,  0.0214686412364244 ]
  - [   0.0013440577313304,  0.0000073502305895,  0.0214721225202084 ]
  - [   0.0020941169932485,  0.0011407937854528,  0.0214740503579378 ]
  - [   0.0021074532996863, -0.0011410620063543,  0.0214693881571293 ]
  - [   0.0013444887008518,  0.0000082436017692,  0.0214724130928516 ]
  - [   0.0020942573901266, -0.0011261322069913,  0.0214743912220001 ]
  - [   0.0021073855459690,  0.0011548092588782,  0.0214694067835808 ]
  - [   0.0009995466098189, -0.0011889906600118,  0.0037983926013112 ]
  - [   0.0013772905804217, -0.0011892141774297,  0.0037852562963963 ]
  - [   0.0013780510053039, -0.0011881310492754,  0.0038201422430575 ]
  - [   0.0013399841263890, -0.0011878088116646,  0.0038023996166885 ]
  - [   0.0013915682211518, -0.0012019528076053,  0.0040041450411081 ]
  - [   0.0013914620503783, -0.0011763088405132,  0.0035953782498837 ]
  - [   0.0013408968225121, -0.0011895215138793,  0.0038021528162062 ]
  - [   0.0013918653130531, -0.0011745896190405,  0.0040048700757325 ]
  - [   0.0013914699666202, -0.0012024091556668,  0.0035953838378191 ]
  - [   0.0028620234224945, -0.0014064721763134,  0.0026986049488187 ]
  - [   0.0028782477602363, -0.0014058817178011,  0.0026970887556672 ]
  - [   0.0028787346091121, -0.0014056009240448,  0.0026976210065186 ]
  - [   0.0028664795681834, -0.0014078880194575,  0.0026974675711244 ]
  - [   0.0028743245638907, -0.0014039431698620,  0.0026967753656209 ]
  - [   0.0028733490034938, -0.0014098386745900,  0.0026973276399076 ]
  - [   0.0028667852748185, -0.0014061687979847,  0.0026975525543094 ]
  - [   0.0028744763694704, -0.0014098130632192,  0.0026968293823302 ]
  - [   0.0028741273563355, -0.0014035382773727,  0.0026975786313415 ]
  - [   0.0000698620497133,  0.0022829188965261,  0.0152988946065307 ]
  - [   0.0001978785730898, -0.0031350683420897,  0.0153293088078499 ]
  - [  -0.0016018874011934, -0.0003504363994580,  0.0153143191710114 ]
  - [   0.0000556228696951, -0.0029603336006403,  0.0153001639991999 ]
  - [   0.0001848509418778,  0.0024419771507382,  0.0153290573507547 ]
  - [  -0.0016027424717322, -0.0003314346831758,  0.0153144076466560 ]
  - [  -0.0027605548966676, -0.0003419289423618,  0.0153181469067931 ]
  - [  -0.0027603728231043, -0.0003429052303545,  0.0153100211173296 ]
  - [  -0.0010064385132864, -0.0003409222117625,  0.0153137845918536 ]
  - [  -0.0011763662332669,  0.0004429736873135, -0.0058260206133127 ]
  - [  -0.0011771207209677,  0.0004297562700231, -0.0062665087170899 ]
  - [  -0.0011343904770911,  0.0004360004386399, -0.0060444418340921 ]
  - [  -0.0011753768194467,  0.0004297074046917, -0.0058265067636967 ]
  - [  -0.0011771759018302,  0.0004404098435771, -0.0062667476013303 ]
  - [  -0.0011329653207213,  0.0004348438233137, -0.0060445498675108 ]
  - [  -0.0011706405784935,  0.0004351391980890, -0.0060211634263396 ]
  - [  -0.0011708245147020,  0.0004353752301540, -0.0060692839324474 ]
  - [  -0.0011449300218374,  0.0004346503410488, -0.0060454318299890 ]
  - [   0.0005756583996117, -0.0007348193321377, -0.0067793824709952 ]
  - [   0.0004601664841175, -0.0007343797478825, -0.0066221575252712 ]
  - [   0.0004592903424054, -0.0007353781256825, -0.0069331503473222 ]
  - [   0.0004894032608718, -0.0007376675494015, -0.0067779486998916 ]
  - [   0.0004666494205594, -0.0007455446757376, -0.0067199855111539 ]
  - [   0.0004653988871723, -0.0007301061414182, -0.0068358387798071 ]
  - [   0.0004891268908978, -0.0007361827883869, -0.0067782253026962 ]
  - [   0.0004673232324421, -0.0007297226693481, -0.0067199263721704 ]
  - [   0.0004669805057347, -0.0007437719032168, -0.0068358331918716 ]
  - [   0.0006748223677278, -0.0018806057050824, -0.0100788213312626 ]
  - [   0.0012341635301709, -0.0018806895241141, -0.0100739961490035 ]
  - [   0.0012331609614193, -0.0018784804269671, -0.0101109705865383 ]
  - [   0.0011701867915690, -0.0018778932280838, -0.0100903436541557 ]
  - [   0.0012401794083416, -0.0018870737403631, -0.0102983899414539 ]
  - [   0.0012377970851958, -0.0018721180967987, -0.0098791737109423 ]
  - [   0.0011670114472508, -0.0018796049989760, -0.0100903511047363 ]
  - [   0.0012392271310091, -0.0018724100664258, -0.0103008244186640 ]
  - [   0.0012392522767186, -0.0018864255398512, -0.0098771713674068 ]
  - [   0.0016931414138526, -0.0023778928443789, -0.0101059442386031 ]
  - [   0.0015836290549487, -0.0023771866690367, -0.0102636478841305 ]
  - [   0.0015831268392503, -0.0023778018075973, -0.0099554909393191 ]
  - [   0.0016148355789483, -0.0023787124082446, -0.0101091545075178 ]
  - [   0.0015915990807116, -0.0023843215312809, -0.0101646613329649 ]
  - [   0.0015906821936369, -0.0023690317757428, -0.0100540658459067 ]
  - [   0.0016133892349899, -0.0023782297503203, -0.0101100867614150 ]
  - [   0.0015898402780294, -0.0023711971007288, -0.0101649053394794 ]
  - [   0.0015893545933068, -0.0023866293486208, -0.0100539755076170 ]
  - [  -0.0021255868487060,  0.0015604868531227,  0.0138890733942389 ]
  - [  -0.0021258462220430,  0.0015586329391226,  0.0138974441215396 ]
  - [  -0.0021224301308393,  0.0015600147889927,  0.0138928163796663 ]
  - [  -0.0021269074641168,  0.0015577831072733,  0.0138896172866225 ]
  - [  -0.0021267815027386,  0.0015601896448061,  0.0138970259577036 ]
  - [  -0.0021231337450445,  0.0015584686771035,  0.0138935027644038 ]
  - [  -0.0021234750747681,  0.0015599473845214,  0.0138932177796960 ]
  - [  -0.0021253898739815,  0.0015606697415933,  0.0138933528214693 ]
  - [  -0.0021243053488433,  0.0015599497128278,  0.0138935241848230 ]
  - [  -0.0002211534883827,  0.0023074941709638, -0.0140443881973624 ]
  - [  -0.0002233503037132,  0.0024317977949977, -0.0138550791889429 ]
  - [  -0.0005885647842661,  0.0023700217716396, -0.0139533411711454 ]
  - [  -0.0002189495135099,  0.0024287546984851, -0.0140418084338307 ]
  - [  -0.0002202555042459,  0.0023094757925719, -0.0138592962175608 ]
  - [  -0.0005881051765755,  0.0023693190887570, -0.0139537239447236 ]
  - [  -0.0001476418692619,  0.0023719689343125, -0.0140841193497181 ]
  - [  -0.0001489026471972,  0.0023699321318418, -0.0138212535530329 ]
  - [  -0.0006270390003920,  0.0023700380697846, -0.0139543320983648 ]
  - [  -0.0024290117435157,  0.0022591163869947, -0.0106785129755735 ]
  - [  -0.0024278236087412,  0.0022453328128904, -0.0102743562310934 ]
  - [  -0.0023851147852838,  0.0022527934052050, -0.0104774702340364 ]
  - [  -0.0024275942705572,  0.0022482890635729, -0.0106785567477345 ]
  - [  -0.0024273083545268,  0.0022604945115745, -0.0102734919637442 ]
  - [  -0.0023828484117985,  0.0022541969083250, -0.0104774478822947 ]
  - [  -0.0024203862994909,  0.0022535100579262, -0.0105004180222750 ]
  - [  -0.0024198070168495,  0.0022539233323187, -0.0104539813473821 ]
  - [  -0.0023964706342667,  0.0022541296202689, -0.0104774273931980 ]
  - [  -0.0004175372887403,  0.0012558503076434,  0.0003195595927536 ]
  - [  -0.0004157840739936,  0.0013504377566278,  0.0002297447063029 ]
  - [  -0.0007952523883432,  0.0013058248441666,  0.0002749040722847 ]
  - [  -0.0004196314839646,  0.0013565656263381,  0.0003209253773093 ]
  - [  -0.0004160863172729,  0.0012595355510712,  0.0002287323586643 ]
  - [  -0.0007951430161484,  0.0013048115652055,  0.0002752402797341 ]
  - [  -0.0003640451468527,  0.0013051244895905,  0.0004036189056933 ]
  - [  -0.0003652423620224,  0.0013057156465948,  0.0001446264795959 ]
  - [  -0.0008268896490335,  0.0013052001595497,  0.0002766870893538 ]
- atom:    1
  displacement:
    [  -0.0100000000000000,  0.0000000000000000,  0.0000000000000000 ]
  forces:
  - [   0.0143537409603596,  0.0000072135590017,  0.0214947853237391 ]
  - [   0.0012217117473483,  0.0000080694444478,  0.0214683394879103 ]
  - [   0.0012814463116229,  0.0000064915511757,  0.0214757155627012 ]
  - [   0.0009919821750373, -0.0000014798715711,  0.0214722957462072 ]
  - [   0.0002304909285158, -0.0011421563103795,  0.0214684158563614 ]
  - [   0.0002438998781145,  0.0011371704749763,  0.0214752964675426 ]
  - [   0.0009933291003108,  0.0000172648578882,  0.0214722882956266 ]
  - [   0.0002295670565218,  0.0011583208106458,  0.0214689336717129 ]
  - [   0.0002427736762911, -0.0011243594344705,  0.0214745569974184 ]
  - [   0.0017498391680419, -0.0011890353634953,  0.0037319986149669 ]
  - [   0.0013737385161221, -0.0011887857690454,  0.0038225590251386 ]
  - [   0.0013664038851857, -0.0011884998530149,  0.0037876213900745 ]
  - [   0.0014083324931562, -0.0011859228834510,  0.0038003046065569 ]
  - [   0.0013576396740973, -0.0011739050969481,  0.0035942350514233 ]
  - [   0.0013573919422925, -0.0012017376720905,  0.0040037920698524 ]
  - [   0.0014095664955676, -0.0011908588930964,  0.0038006491959095 ]
  - [   0.0013574245385826, -0.0012031821534038,  0.0035945829004049 ]
  - [   0.0013572080060840, -0.0011769589036703,  0.0040037124417722 ]
  - [   0.0028834866825491, -0.0014067795127630,  0.0026970484759659 ]
  - [   0.0028671568725258, -0.0014059580862522,  0.0026975353248417 ]
  - [   0.0028682935517281, -0.0014053285121918,  0.0026967343874276 ]
  - [   0.0028756638057530, -0.0014078160747886,  0.0026974072679877 ]
  - [   0.0028696414083242, -0.0014096572995186,  0.0026975390501320 ]
  - [   0.0028690644539893, -0.0014036900829524,  0.0026969024911523 ]
  - [   0.0028761534485966, -0.0014062467962503,  0.0026975721120834 ]
  - [   0.0028696299996227, -0.0014035778585821,  0.0026979474350810 ]
  - [   0.0028699019458145, -0.0014099720865488,  0.0026967558078468 ]
  - [  -0.0046035256236792, -0.0032182214781642,  0.0153291085734963 ]
  - [  -0.0043685892596841,  0.0022053541615605,  0.0152997700497508 ]
  - [  -0.0027490858919919, -0.0003503865154926,  0.0153139699250460 ]
  - [  -0.0045900135301054,  0.0025226795114577,  0.0153280664235353 ]
  - [  -0.0043547223322093, -0.0028804063331336,  0.0153002869337797 ]