# Thermal properties / unit cell (natom)

unit:
  temperature:   K
  free_energy:   kJ/mol
  entropy:       J/K/mol
  heat_capacity: J/K/mol

natom: 13   
cutoff_frequency: 0.00000
num_modes: 312000
num_integrated_modes: 289993

zero_point_energy:      39.0424098

thermal_properties:
- temperature:         0.0000000
  free_energy:        39.0424098
  entropy:             0.0000000
  heat_capacity:       0.0000000
  energy:             39.0424098

- temperature:        10.0000000
  free_energy:        39.0173921
  entropy:             8.6200793
  heat_capacity:      20.1417130
  energy:             39.1035929

- temperature:        20.0000000
  free_energy:        38.8080975
  entropy:            34.5930296
  heat_capacity:      57.3999428
  energy:             39.4999581

- temperature:        30.0000000
  free_energy:        38.3187533
  entropy:            63.1148250
  heat_capacity:      83.5114022
  energy:             40.2121980

- temperature:        40.0000000
  free_energy:        37.5518789
  entropy:            89.9044273
  heat_capacity:     102.8817679
  energy:             41.1480560

- temperature:        50.0000000
  free_energy:        36.5276256
  entropy:           114.6208438
  heat_capacity:     118.8518871
  energy:             42.2586678

- temperature:        60.0000000
  free_energy:        35.2653547
  entropy:           137.5696575
  heat_capacity:     133.1235634
  energy:             43.5195342

- temperature:        70.0000000
  free_energy:        33.7809444
  entropy:           159.1019736
  heat_capacity:     146.4612231
  energy:             44.9180825

- temperature:        80.0000000
  free_energy:        32.0871135
  entropy:           179.4918935
  heat_capacity:     159.1032590
  energy:             46.4464650

- temperature:        90.0000000
  free_energy:        30.1942775
  entropy:           198.9283538
  heat_capacity:     171.0477562
  energy:             48.0978293

- temperature:       100.0000000
  free_energy:        28.1113064
  entropy:           217.5354206
  heat_capacity:     182.2212500
  energy:             49.8648485

- temperature:       110.0000000
  free_energy:        25.8460593
  entropy:           235.3945815
  heat_capacity:     192.5587089
  energy:             51.7394633

- temperature:       120.0000000
  free_energy:        23.4057198
  entropy:           252.5617744
  heat_capacity:     202.0304418
  energy:             53.7131327

- temperature:       130.0000000
  free_energy:        20.7969910
  entropy:           269.0785765
  heat_capacity:     210.6432572
  energy:             55.7772060

- temperature:       140.0000000
  free_energy:        18.0262028
  entropy:           284.9789028
  heat_capacity:     218.4320571
  energy:             57.9232492

- temperature:       150.0000000
  free_energy:        15.0993678
  entropy:           300.2927206
  heat_capacity:     225.4497917
  energy:             60.1432759

- temperature:       160.0000000
  free_energy:        12.0222102
  entropy:           315.0479527
  heat_capacity:     231.7589137
  energy:             62.4298826

- temperature:       170.0000000
  free_energy:         8.8001814
  entropy:           329.2713519
  heat_capacity:     237.4251248
  energy:             64.7763112

- temperature:       180.0000000
  free_energy:         5.4384695
  entropy:           342.9888280
  heat_capacity:     242.5132357
  energy:             67.1764585

- temperature:       190.0000000
  free_energy:         1.9420074
  entropy:           356.2255096
  heat_capacity:     247.0846730
  energy:             69.6248542

- temperature:       200.0000000
  free_energy:        -1.6845191
  entropy:           369.0056926
  heat_capacity:     251.1961506
  energy:             72.1166194

- temperature:       210.0000000
  free_energy:        -5.4366628
  entropy:           381.3527569
  heat_capacity:     254.8991161
  energy:             74.6474161

- temperature:       220.0000000
  free_energy:        -9.3102053
  entropy:           393.2890889
  heat_capacity:     258.2396827
  energy:             77.2133943

- temperature:       230.0000000
  free_energy:       -13.3011467
  entropy:           404.8360248
  heat_capacity:     261.2588458
  energy:             79.8111390

- temperature:       240.0000000
  free_energy:       -17.4056954
  entropy:           416.0138191
  heat_capacity:     263.9928538
  energy:             82.4376212

- temperature:       250.0000000
  free_energy:       -21.6202567
  entropy:           426.8416363
  heat_capacity:     266.4736454
  energy:             85.0901524

- temperature:       260.0000000
  free_energy:       -25.9414220
  entropy:           437.3375614
  heat_capacity:     268.7293042
  energy:             87.7663440

- temperature:       270.0000000
  free_energy:       -30.3659585
  entropy:           447.5186262
  heat_capacity:     270.7844994
  energy:             90.4640706

- temperature:       280.0000000
  free_energy:       -34.8907985
  entropy:           457.4008455
  heat_capacity:     272.6608962
  energy:             93.1814383

- temperature:       290.0000000
  free_energy:       -39.5130295
  entropy:           466.9992611
  heat_capacity:     274.3775285
  energy:             95.9167562

- temperature:       300.0000000
  free_energy:       -44.2298848
  entropy:           476.3279904
  heat_capacity:     275.9511322
  energy:             98.6685123

- temperature:       310.0000000
  free_energy:       -49.0387346
  entropy:           485.4002774
  heat_capacity:     277.3964398
  energy:            101.4353514

- temperature:       320.0000000
  free_energy:       -53.9370770
  entropy:           494.2285436
  heat_capacity:     278.7264376
  energy:            104.2160569

- temperature:       330.0000000
  free_energy:       -58.9225309
  entropy:           502.8244398
  heat_capacity:     279.9525914
  energy:            107.0095342

- temperature:       340.0000000
  free_energy:       -63.9928278
  entropy:           511.1988950
  heat_capacity:     281.0850413
  energy:            109.8147965

- temperature:       350.0000000
  free_energy:       -69.1458050
  entropy:           519.3621648
  heat_capacity:     282.1327708
  energy:            112.6309527

- temperature:       360.0000000
  free_energy:       -74.3793993
  entropy:           527.3238764
  heat_capacity:     283.1037542
  energy:            115.4571962

- temperature:       370.0000000
  free_energy:       -79.6916408
  entropy:           535.0930717
  heat_capacity:     284.0050826
  energy:            118.2927957

- temperature:       380.0000000
  free_energy:       -85.0806474
  entropy:           542.6782479
  heat_capacity:     284.8430741
  energy:            121.1370868

- temperature:       390.0000000
  free_energy:       -90.5446191
  entropy:           550.0873949
  heat_capacity:     285.6233686
  energy:            123.9894649

- temperature:       400.0000000
  free_energy:       -96.0818336
  entropy:           557.3280309
  heat_capacity:     286.3510104
  energy:            126.8493787

- temperature:       410.0000000
  free_energy:      -101.6906416
  entropy:           564.4072351
  heat_capacity:     287.0305193
  energy:            129.7163247

- temperature:       420.0000000
  free_energy:      -107.3694625
  entropy:           571.3316780
  heat_capacity:     287.6659530
  energy:            132.5898423

- temperature:       430.0000000
  free_energy:      -113.1167803
  entropy:           578.1076498
  heat_capacity:     288.2609608
  energy:            135.4695091

- temperature:       440.0000000
  free_energy:      -118.9311404
  entropy:           584.7410866
  heat_capacity:     288.8188304
  energy:            138.3549377

- temperature:       450.0000000
  free_energy:      -124.8111457
  entropy:           591.2375944
  heat_capacity:     289.3425297
  energy:            141.2457718

- temperature:       460.0000000
  free_energy:      -130.7554536
  entropy:           597.6024716
  heat_capacity:     289.8347416
  energy:            144.1416834

- temperature:       470.0000000
  free_energy:      -136.7627731
  entropy:           603.8407295
  heat_capacity:     290.2978961
  energy:            147.0423698

- temperature:       480.0000000
  free_energy:      -142.8318619
  entropy:           609.9571119
  heat_capacity:     290.7341976
  energy:            149.9475518

- temperature:       490.0000000
  free_energy:      -148.9615241
  entropy:           615.9561123
  heat_capacity:     291.1456490
  energy:            152.8569710

- temperature:       500.0000000
  free_energy:      -155.1506071
  entropy:           621.8419903
  heat_capacity:     291.5340731
  energy:            155.7703880

- temperature:       510.0000000
  free_energy:      -161.3980003
  entropy:           627.6187873
  heat_capacity:     291.9011312
  energy:            158.6875812

- temperature:       520.0000000
  free_energy:      -167.7026321
  entropy:           633.2903396
  heat_capacity:     292.2483399
  energy:            161.6083445

- temperature:       530.0000000
  free_energy:      -174.0634684
  entropy:           638.8602923
  heat_capacity:     292.5770854
  energy:            164.5324865

- temperature:       540.0000000
  free_energy:      -180.4795108
  entropy:           644.3321106
  heat_capacity:     292.8886368
  energy:            167.4598289

- temperature:       550.0000000
  free_energy:      -186.9497945
  entropy:           649.7090915
  heat_capacity:     293.1841574
  energy:            170.3902058

- temperature:       560.0000000
  free_energy:      -193.4733870
  entropy:           654.9943736
  heat_capacity:     293.4647151
  energy:            173.3234622

- temperature:       570.0000000
  free_energy:      -200.0493863
  entropy:           660.1909471
  heat_capacity:     293.7312914
  energy:            176.2594535

- temperature:       580.0000000
  free_energy:      -206.6769198
  entropy:           665.3016624
  heat_capacity:     293.9847896
  energy:            179.1980445

- temperature:       590.0000000
  free_energy:      -213.3551425
  entropy:           670.3292389
  heat_capacity:     294.2260421
  energy:            182.1391085

- temperature:       600.0000000
  free_energy:      -220.0832361
  entropy:           675.2762719
  heat_capacity:     294.4558168
  energy:            185.0825270

- temperature:       610.0000000
  free_energy:      -226.8604077
  entropy:           680.1452404
  heat_capacity:     294.6748231
  energy:            188.0281889

- temperature:       620.0000000
  free_energy:      -233.6858886
  entropy:           684.9385135
  heat_capacity:     294.8837168
  energy:            190.9759898

- temperature:       630.0000000
  free_energy:      -240.5589332
  entropy:           689.6583568
  heat_capacity:     295.0831051
  energy:            193.9258316

- temperature:       640.0000000
  free_energy:      -247.4788182
  entropy:           694.3069379
  heat_capacity:     295.2735509
  energy:            196.8776221

- temperature:       650.0000000
  free_energy:      -254.4448413
  entropy:           698.8863321
  heat_capacity:     295.4555763
  energy:            199.8312745

- temperature:       660.0000000
  free_energy:      -261.4563208
  entropy:           703.3985273
  heat_capacity:     295.6296661
  energy:            202.7867072

- temperature:       670.0000000
  free_energy:      -268.5125943
  entropy:           707.8454286
  heat_capacity:     295.7962712
  energy:            205.7438429

- temperature:       680.0000000
  free_energy:      -275.6130179
  entropy:           712.2288631
  heat_capacity:     295.9558110
  energy:            208.7026090

- temperature:       690.0000000
  free_energy:      -282.7569658
  entropy:           716.5505836
  heat_capacity:     296.1086764
  energy:            211.6629369

- temperature:       700.0000000
  free_energy:      -289.9438294
  entropy:           720.8122728
  heat_capacity:     296.2552316
  energy:            214.6247615

- temperature:       710.0000000
  free_energy:      -297.1730166
  entropy:           725.0155467
  heat_capacity:     296.3958168
  energy:            217.5880216

- temperature:       720.0000000
  free_energy:      -304.4439508
  entropy:           729.1619582
  heat_capacity:     296.5307494
  energy:            220.5526590

- temperature:       730.0000000
  free_energy:      -311.7560712
  entropy:           733.2529999
  heat_capacity:     296.6603263
  energy:            223.5186188

- temperature:       740.0000000
  free_energy:      -319.1088311
  entropy:           737.2901077
  heat_capacity:     296.7848254
  energy:            226.4858486

- temperature:       750.0000000
  free_energy:      -326.5016981
  entropy:           741.2746632
  heat_capacity:     296.9045068
  energy:            229.4542992

- temperature:       760.0000000
  free_energy:      -333.9341536
  entropy:           745.2079962
  heat_capacity:     297.0196142
  energy:            232.4239235

- temperature:       770.0000000
  free_energy:      -341.4056916
  entropy:           749.0913878
  heat_capacity:     297.1303765
  energy:            235.3946770

- temperature:       780.0000000
  free_energy:      -348.9158190
  entropy:           752.9260722
  heat_capacity:     297.2370081
  energy:            238.3665173

- temperature:       790.0000000
  free_energy:      -356.4640547
  entropy:           756.7132389
  heat_capacity:     297.3397107
  energy:            241.3394041

- temperature:       800.0000000
  free_energy:      -364.0499292
  entropy:           760.4540353
  heat_capacity:     297.4386740
  energy:            244.3132990

- temperature:       810.0000000
  free_energy:      -371.6729845
  entropy:           764.1495681
  heat_capacity:     297.5340761
  energy:            247.2881657

- temperature:       820.0000000
  free_energy:      -379.3327733
  entropy:           767.8009055
  heat_capacity:     297.6260851
  energy:            250.2639693

- temperature:       830.0000000
  free_energy:      -387.0288587
  entropy:           771.4090787
  heat_capacity:     297.7148591
  energy:            253.2406766

- temperature:       840.0000000
  free_energy:      -394.7608143
  entropy:           774.9750839
  heat_capacity:     297.8005471
  energy:            256.2182562

- temperature:       850.0000000
  free_energy:      -402.5282231
  entropy:           778.4998833
  heat_capacity:     297.8832898
  energy:            259.1966777

- temperature:       860.0000000
  free_energy:      -410.3306777
  entropy:           781.9844073
  heat_capacity:     297.9632201
  energy:            262.1759126

- temperature:       870.0000000
  free_energy:      -418.1677800
  entropy:           785.4295553
  heat_capacity:     298.0404632
  energy:            265.1559332

- temperature:       880.0000000
  free_energy:      -426.0391405
  entropy:           788.8361974
  heat_capacity:     298.1151378
  energy:            268.1367133

- temperature:       890.0000000
  free_energy:      -433.9443784
  entropy:           792.2051754
  heat_capacity:     298.1873559
  energy:            271.1182278

- temperature:       900.0000000
  free_energy:      -441.8831211
  entropy:           795.5373041
  heat_capacity:     298.2572237
  energy:            274.1004526

- temperature:       910.0000000
  free_energy:      -449.8550042
  entropy:           798.8333725
  heat_capacity:     298.3248415
  energy:            277.0833647

- temperature:       920.0000000
  free_energy:      -457.8596709
  entropy:           802.0941447
  heat_capacity:     298.3903045
  energy:            280.0669422

- temperature:       930.0000000
  free_energy:      -465.8967720
  entropy:           805.3203612
  heat_capacity:     298.4537030
  energy:            283.0511639

- temperature:       940.0000000
  free_energy:      -473.9659654
  entropy:           808.5127394
  heat_capacity:     298.5151224
  energy:            286.0360097

- temperature:       950.0000000
  free_energy:      -482.0669163
  entropy:           811.6719751
  heat_capacity:     298.5746439
  energy:            289.0214601

- temperature:       960.0000000
  free_energy:      -490.1992966
  entropy:           814.7987428
  heat_capacity:     298.6323447
  energy:            292.0074965

- temperature:       970.0000000
  free_energy:      -498.3627851
  entropy:           817.8936971
  heat_capacity:     298.6882980
  energy:            294.9941011

- temperature:       980.0000000
  free_energy:      -506.5570667
  entropy:           820.9574730
  heat_capacity:     298.7425733
  energy:            297.9812569

- temperature:       990.0000000
  free_energy:      -514.7818327
  entropy:           823.9906868
  heat_capacity:     298.7952368
  energy:            300.9689472

- temperature:      1000.0000000
  free_energy:      -523.0367805
  entropy:           826.9939369
  heat_capacity:     298.8463515
  energy:            303.9571564
