# Thermal properties / unit cell (natom)

unit:
  temperature:   K
  free_energy:   kJ/mol
  entropy:       J/K/mol
  heat_capacity: J/K/mol

natom: 9    
cutoff_frequency: 0.00000
num_modes: 162000
num_integrated_modes: 161997

zero_point_energy:      28.4851616

thermal_properties:
- temperature:         0.0000000
  free_energy:        28.4851616
  entropy:             0.0000000
  heat_capacity:       0.0000000
  energy:             28.4851616

- temperature:        10.0000000
  free_energy:        28.4825576
  entropy:             1.1839655
  heat_capacity:       4.2126234
  energy:             28.4943972

- temperature:        20.0000000
  free_energy:        28.4321290
  entropy:            10.5120737
  heat_capacity:      27.2829823
  energy:             28.6423705

- temperature:        30.0000000
  free_energy:        28.2512009
  entropy:            26.1931318
  heat_capacity:      50.5222956
  energy:             29.0369949

- temperature:        40.0000000
  free_energy:        27.9044370
  entropy:            43.1492067
  heat_capacity:      67.2704065
  energy:             29.6304053

- temperature:        50.0000000
  free_energy:        27.3900229
  entropy:            59.6084372
  heat_capacity:      80.3855537
  energy:             30.3704448

- temperature:        60.0000000
  free_energy:        26.7147809
  entropy:            75.3230386
  heat_capacity:      92.2592251
  energy:             31.2341633

- temperature:        70.0000000
  free_energy:        25.8856489
  entropy:            90.4107692
  heat_capacity:     103.7387612
  energy:             32.2144027

- temperature:        80.0000000
  free_energy:        24.9082416
  entropy:           104.9935194
  heat_capacity:     114.8471602
  energy:             33.3077231

- temperature:        90.0000000
  free_energy:        23.7872449
  entropy:           119.1349062
  heat_capacity:     125.3691497
  energy:             34.5093865

- temperature:       100.0000000
  free_energy:        22.5269440
  entropy:           132.8554986
  heat_capacity:     135.1107031
  energy:             35.8124938

- temperature:       110.0000000
  free_energy:        21.1315364
  entropy:           146.1555061
  heat_capacity:     143.9675158
  energy:             37.2086420

- temperature:       120.0000000
  free_energy:        19.6052536
  entropy:           159.0296834
  heat_capacity:     151.9175994
  energy:             38.6888156

- temperature:       130.0000000
  free_energy:        17.9523739
  entropy:           171.4746705
  heat_capacity:     158.9947954
  energy:             40.2440810

- temperature:       140.0000000
  free_energy:        16.1771874
  entropy:           183.4916428
  heat_capacity:     165.2641982
  energy:             41.8660174

- temperature:       150.0000000
  free_energy:        14.2839483
  entropy:           195.0865769
  heat_capacity:     170.8046125
  energy:             43.5469348

- temperature:       160.0000000
  free_energy:        12.2768295
  entropy:           206.2695151
  heat_capacity:     175.6975905
  energy:             45.2799520

- temperature:       170.0000000
  free_energy:        10.1598879
  entropy:           217.0535399
  heat_capacity:     180.0212644
  energy:             47.0589897

- temperature:       180.0000000
  free_energy:         7.9370381
  entropy:           227.4537842
  heat_capacity:     183.8472938
  energy:             48.8787193

- temperature:       190.0000000
  free_energy:         5.6120370
  entropy:           237.4865997
  heat_capacity:     187.2396912
  energy:             50.7344910

- temperature:       200.0000000
  free_energy:         3.1884745
  entropy:           247.1689075
  heat_capacity:     190.2547097
  energy:             52.6222560

- temperature:       210.0000000
  free_energy:         0.6697705
  entropy:           256.5177170
  heat_capacity:     192.9412833
  energy:             54.5384911

- temperature:       220.0000000
  free_energy:        -1.9408241
  entropy:           265.5497846
  heat_capacity:     195.3417197
  energy:             56.4801285

- temperature:       230.0000000
  free_energy:        -4.6402237
  entropy:           274.2813802
  heat_capacity:     197.4924730
  energy:             58.4444938

- temperature:       240.0000000
  free_energy:        -7.4255023
  entropy:           282.7281377
  heat_capacity:     199.4249057
  energy:             60.4292507

- temperature:       250.0000000
  free_energy:       -10.2938867
  entropy:           290.9049649
  heat_capacity:     201.1659937
  energy:             62.4323545

- temperature:       260.0000000
  free_energy:       -13.2427490
  entropy:           298.8259984
  heat_capacity:     202.7389560
  energy:             64.4520106

- temperature:       270.0000000
  free_energy:       -16.2695987
  entropy:           306.5045883
  heat_capacity:     204.1638042
  energy:             66.4866402

- temperature:       280.0000000
  free_energy:       -19.3720746
  entropy:           313.9533051
  heat_capacity:     205.4578170
  energy:             68.5348508

- temperature:       290.0000000
  free_energy:       -22.5479380
  entropy:           321.1839601
  heat_capacity:     206.6359446
  energy:             70.5954105

- temperature:       300.0000000
  free_energy:       -25.7950640
  entropy:           328.2076359
  heat_capacity:     207.7111526
  energy:             72.6672268

- temperature:       310.0000000
  free_energy:       -29.1114355
  entropy:           335.0347214
  heat_capacity:     208.6947130
  energy:             74.7493282

- temperature:       320.0000000
  free_energy:       -32.4951356
  entropy:           341.6749502
  heat_capacity:     209.5964505
  energy:             76.8408484

- temperature:       330.0000000
  free_energy:       -35.9443421
  entropy:           348.1374402
  heat_capacity:     210.4249503
  energy:             78.9410132

- temperature:       340.0000000
  free_energy:       -39.4573205
  entropy:           354.4307324
  heat_capacity:     211.1877341
  energy:             81.0491285

- temperature:       350.0000000
  free_energy:       -43.0324194
  entropy:           360.5628297
  heat_capacity:     211.8914089
  energy:             83.1645709

- temperature:       360.0000000
  free_energy:       -46.6680648
  entropy:           366.5412332
  heat_capacity:     212.5417930
  energy:             85.2867791

- temperature:       370.0000000
  free_energy:       -50.3627553
  entropy:           372.3729774
  heat_capacity:     213.1440230
  energy:             87.4152463

- temperature:       380.0000000
  free_energy:       -54.1150576
  entropy:           378.0646627
  heat_capacity:     213.7026451
  energy:             89.5495143

- temperature:       390.0000000
  free_energy:       -57.9236024
  entropy:           383.6224866
  heat_capacity:     214.2216925
  energy:             91.6891674

- temperature:       400.0000000
  free_energy:       -61.7870805
  entropy:           389.0522719
  heat_capacity:     214.7047518
  energy:             93.8338282

- temperature:       410.0000000
  free_energy:       -65.7042393
  entropy:           394.3594938
  heat_capacity:     215.1550197
  energy:             95.9831532

- temperature:       420.0000000
  free_energy:       -69.6738791
  entropy:           399.5493046
  heat_capacity:     215.5753521
  energy:             98.1368288

- temperature:       430.0000000
  free_energy:       -73.6948502
  entropy:           404.6265563
  heat_capacity:     215.9683055
  energy:            100.2945690

- temperature:       440.0000000
  free_energy:       -77.7660503
  entropy:           409.5958219
  heat_capacity:     216.3361735
  energy:            102.4561114

- temperature:       450.0000000
  free_energy:       -81.8864211
  entropy:           414.4614152
  heat_capacity:     216.6810179
  energy:            104.6212157

- temperature:       460.0000000
  free_energy:       -86.0549466
  entropy:           419.2274083
  heat_capacity:     217.0046961
  energy:            106.7896612

- temperature:       470.0000000
  free_energy:       -90.2706501
  entropy:           423.8976486
  heat_capacity:     217.3088842
  energy:            108.9612447

- temperature:       480.0000000
  free_energy:       -94.5325926
  entropy:           428.4757740
  heat_capacity:     217.5950979
  energy:            111.1357790

- temperature:       490.0000000
  free_energy:       -98.8398701
  entropy:           432.9652273
  heat_capacity:     217.8647099
  energy:            113.3130913

- temperature:       500.0000000
  free_energy:      -103.1916124
  entropy:           437.3692688
  heat_capacity:     218.1189662
  energy:            115.4930220

- temperature:       510.0000000
  free_energy:      -107.5869811
  entropy:           441.6909888
  heat_capacity:     218.3589989
  energy:            117.6754232

- temperature:       520.0000000
  free_energy:      -112.0251676
  entropy:           445.9333184
  heat_capacity:     218.5858391
  energy:            119.8601580

- temperature:       530.0000000
  free_energy:      -116.5053921
  entropy:           450.0990401
  heat_capacity:     218.8004270
  energy:            122.0470992

- temperature:       540.0000000
  free_energy:      -121.0269018
  entropy:           454.1907971
  heat_capacity:     219.0036212
  energy:            124.2361286

- temperature:       550.0000000
  free_energy:      -125.5889699
  entropy:           458.2111020
  heat_capacity:     219.1962072
  energy:            126.4271363

- temperature:       560.0000000
  free_energy:      -130.1908937
  entropy:           462.1623455
  heat_capacity:     219.3789046
  energy:            128.6200198

- temperature:       570.0000000
  free_energy:      -134.8319942
  entropy:           466.0468031
  heat_capacity:     219.5523734
  energy:            130.8146836

- temperature:       580.0000000
  free_energy:      -139.5116144
  entropy:           469.8666429
  heat_capacity:     219.7172199
  energy:            133.0110385

- temperature:       590.0000000
  free_energy:      -144.2291185
  entropy:           473.6239316
  heat_capacity:     219.8740020
  energy:            135.2090011

- temperature:       600.0000000
  free_energy:      -148.9838911
  entropy:           477.3206408
  heat_capacity:     220.0232333
  energy:            137.4084934

- temperature:       610.0000000
  free_energy:      -153.7753357
  entropy:           480.9586523
  heat_capacity:     220.1653876
  energy:            139.6094422

- temperature:       620.0000000
  free_energy:      -158.6028745
  entropy:           484.5397637
  heat_capacity:     220.3009024
  energy:            141.8117790

- temperature:       630.0000000
  free_energy:      -163.4659470
  entropy:           488.0656929
  heat_capacity:     220.4301820
  energy:            144.0154395

- temperature:       640.0000000
  free_energy:      -168.3640099
  entropy:           491.5380828
  heat_capacity:     220.5536007
  energy:            146.2203631

- temperature:       650.0000000
  free_energy:      -173.2965355
  entropy:           494.9585055
  heat_capacity:     220.6715054
  energy:            148.4264931

- temperature:       660.0000000
  free_energy:      -178.2630118
  entropy:           498.3284662
  heat_capacity:     220.7842176
  energy:            150.6337759

- temperature:       670.0000000
  free_energy:      -183.2629414
  entropy:           501.6494068
  heat_capacity:     220.8920362
  energy:            152.8421611

- temperature:       680.0000000
  free_energy:      -188.2958411
  entropy:           504.9227094
  heat_capacity:     220.9952386
  energy:            155.0516012

- temperature:       690.0000000
  free_energy:      -193.3612412
  entropy:           508.1496994
  heat_capacity:     221.0940833
  energy:            157.2620514

- temperature:       700.0000000
  free_energy:      -198.4586850
  entropy:           511.3316488
  heat_capacity:     221.1888110
  energy:            159.4734692

- temperature:       710.0000000
  free_energy:      -203.5877281
  entropy:           514.4697786
  heat_capacity:     221.2796458
  energy:            161.6858146

- temperature:       720.0000000
  free_energy:      -208.7479384
  entropy:           517.5652614
  heat_capacity:     221.3667972
  energy:            163.8990498

- temperature:       730.0000000
  free_energy:      -213.9388950
  entropy:           520.6192246
  heat_capacity:     221.4504607
  energy:            166.1131390

- temperature:       740.0000000
  free_energy:      -219.1601881
  entropy:           523.6327515
  heat_capacity:     221.5308191
  energy:            168.3280480

- temperature:       750.0000000
  free_energy:      -224.4114187
  entropy:           526.6068848
  heat_capacity:     221.6080434
  energy:            170.5437449

- temperature:       760.0000000
  free_energy:      -229.6921978
  entropy:           529.5426274
  heat_capacity:     221.6822937
  energy:            172.7601990

- temperature:       770.0000000
  free_energy:      -235.0021465
  entropy:           532.4409453
  heat_capacity:     221.7537201
  energy:            174.9773814

- temperature:       780.0000000
  free_energy:      -240.3408951
  entropy:           535.3027687
  heat_capacity:     221.8224634
  energy:            177.1952644

- temperature:       790.0000000
  free_energy:      -245.7080832
  entropy:           538.1289941
  heat_capacity:     221.8886559
  energy:            179.4138221

- temperature:       800.0000000
  free_energy:      -251.1033592
  entropy:           540.9204859
  heat_capacity:     221.9524216
  energy:            181.6330295

- temperature:       810.0000000
  free_energy:      -256.5263799
  entropy:           543.6780775
  heat_capacity:     222.0138772
  energy:            183.8528629

- temperature:       820.0000000
  free_energy:      -261.9768104
  entropy:           546.4025733
  heat_capacity:     222.0731326
  energy:            186.0732997

- temperature:       830.0000000
  free_energy:      -267.4543237
  entropy:           549.0947496
  heat_capacity:     222.1302912
  energy:            188.2943185

- temperature:       840.0000000
  free_energy:      -272.9586002
  entropy:           551.7553560
  heat_capacity:     222.1854504
  energy:            190.5158988

- temperature:       850.0000000
  free_energy:      -278.4893280
  entropy:           554.3851166
  heat_capacity:     222.2387021
  energy:            192.7380212

- temperature:       860.0000000
  free_energy:      -284.0462021
  entropy:           556.9847313
  heat_capacity:     222.2901328
  energy:            194.9606668

- temperature:       870.0000000
  free_energy:      -289.6289244
  entropy:           559.5548763
  heat_capacity:     222.3398243
  energy:            197.1838180

- temperature:       880.0000000
  free_energy:      -295.2372035
  entropy:           562.0962060
  heat_capacity:     222.3878541
  energy:            199.4074578

- temperature:       890.0000000
  free_energy:      -300.8707546
  entropy:           564.6093532
  heat_capacity:     222.4342950
  energy:            201.6315698

- temperature:       900.0000000
  free_energy:      -306.5292987
  entropy:           567.0949303
  heat_capacity:     222.4792162
  energy:            203.8561386

- temperature:       910.0000000
  free_energy:      -312.2125632
  entropy:           569.5535302
  heat_capacity:     222.5226830
  energy:            206.0811493

- temperature:       920.0000000
  free_energy:      -317.9202813
  entropy:           571.9857271
  heat_capacity:     222.5647575
  energy:            208.3065876

- temperature:       930.0000000
  free_energy:      -323.6521916
  entropy:           574.3920770
  heat_capacity:     222.6054982
  energy:            210.5324400

- temperature:       940.0000000
  free_energy:      -329.4080385
  entropy:           576.7731189
  heat_capacity:     222.6449608
  energy:            212.7586933

- temperature:       950.0000000
  free_energy:      -335.1875714
  entropy:           579.1293753
  heat_capacity:     222.6831979
  energy:            214.9853351

- temperature:       960.0000000
  free_energy:      -340.9905451
  entropy:           581.4613525
  heat_capacity:     222.7202598
  energy:            217.2123534

- temperature:       970.0000000
  free_energy:      -346.8167192
  entropy:           583.7695420
  heat_capacity:     222.7561939
  energy:            219.4397366

- temperature:       980.0000000
  free_energy:      -352.6658582
  entropy:           586.0544202
  heat_capacity:     222.7910455
  energy:            221.6674736

- temperature:       990.0000000
  free_energy:      -358.5377314
  entropy:           588.3164499
  heat_capacity:     222.8248574
  energy:            223.8955540

- temperature:      1000.0000000
  free_energy:      -364.4321125
  entropy:           590.5560800
  heat_capacity:     222.8576704
  energy:            226.1239675
