phonopy:
  version: "2.37.1"
  frequency_unit_conversion_factor: 15.633302
  symmetry_tolerance: 1.00000e-05

space_group:
  type: "Cmce"
  number: 64
  Hall_symbol: "-C 2ac 2"

primitive_matrix:
- [  1.000000000000000,  0.000000000000000,  0.000000000000000 ]
- [  0.000000000000000,  1.000000000000000,  0.000000000000000 ]
- [  0.000000000000000,  0.000000000000000,  1.000000000000000 ]

supercell_matrix:
- [   3,   0,   0 ]
- [   0,   3,   0 ]
- [   0,   0,   3 ]

primitive_cell:
  lattice:
  - [     4.504659947377112,     0.000000000000000,     0.000000000000000 ] # a
  - [    -2.232584834802027,     3.912483701910712,     0.000000000000000 ] # b
  - [    -0.000000043013978,     0.000000015035667,     4.601960769689627 ] # c
  points:
  - symbol: Ga # 1
    coordinates: [  0.344131205129820,  0.655868803599921,  0.579538364840516 ]
    mass: 69.723000
  - symbol: Ga # 2
    coordinates: [  0.655868793192020,  0.344131207486441,  0.420461636252631 ]
    mass: 69.723000
  - symbol: Ga # 3
    coordinates: [  0.155868800050323,  0.844131203443686,  0.079538363437531 ]
    mass: 69.723000
  - symbol: Ga # 4
    coordinates: [  0.844131201441725,  0.155868785498488,  0.920461635552667 ]
    mass: 69.723000
  reciprocal_lattice: # without 2pi
  - [     0.221992339417820,     0.126675730351134,     0.000000001661057 ] # a*
  - [     0.000000000000000,     0.255592119019342,    -0.000000000835078 ] # b*
  - [     0.000000000000000,     0.000000000000000,     0.217298679855423 ] # c*

unit_cell:
  lattice:
  - [     4.504659947377111,     0.000000000000000,     0.000000000000000 ] # a
  - [    -2.232584834802026,     3.912483701910711,     0.000000000000000 ] # b
  - [    -0.000000043013978,     0.000000015035667,     4.601960769689626 ] # c
  points:
  - symbol: Ga # 1
    coordinates: [  0.344131205129820,  0.655868803599921,  0.579538364840516 ]
    mass: 69.723000
    reduced_to: 1
  - symbol: Ga # 2
    coordinates: [  0.655868793192020,  0.344131207486441,  0.420461636252631 ]
    mass: 69.723000
    reduced_to: 2
  - symbol: Ga # 3
    coordinates: [  0.155868800050323,  0.844131203443686,  0.079538363437531 ]
    mass: 69.723000
    reduced_to: 3
  - symbol: Ga # 4
    coordinates: [  0.844131201441725,  0.155868785498488,  0.920461635552667 ]
    mass: 69.723000
    reduced_to: 4

supercell:
  lattice:
  - [    13.513979842131334,     0.000000000000000,     0.000000000000000 ] # a
  - [    -6.697754504406079,    11.737451105732134,     0.000000000000000 ] # b
  - [    -0.000000129041933,     0.000000045107001,    13.805882309068878 ] # c
  points:
  - symbol: Ga # 1
    coordinates: [  0.114710401709940,  0.218622934533307,  0.193179454946839 ]
    mass: 69.723000
    reduced_to: 1
  - symbol: Ga # 2
    coordinates: [  0.448043735043273,  0.218622934533307,  0.193179454946839 ]
    mass: 69.723000
    reduced_to: 1
  - symbol: Ga # 3
    coordinates: [  0.781377068376607,  0.218622934533307,  0.193179454946839 ]
    mass: 69.723000
    reduced_to: 1
  - symbol: Ga # 4
    coordinates: [  0.114710401709940,  0.551956267866640,  0.193179454946839 ]
    mass: 69.723000
    reduced_to: 1
  - symbol: Ga # 5
    coordinates: [  0.448043735043273,  0.551956267866640,  0.193179454946839 ]
    mass: 69.723000
    reduced_to: 1
  - symbol: Ga # 6
    coordinates: [  0.781377068376607,  0.551956267866640,  0.193179454946839 ]
    mass: 69.723000
    reduced_to: 1
  - symbol: Ga # 7
    coordinates: [  0.114710401709940,  0.885289601199974,  0.193179454946839 ]
    mass: 69.723000
    reduced_to: 1
  - symbol: Ga # 8
    coordinates: [  0.448043735043273,  0.885289601199974,  0.193179454946839 ]
    mass: 69.723000
    reduced_to: 1
  - symbol: Ga # 9
    coordinates: [  0.781377068376607,  0.885289601199974,  0.193179454946839 ]
    mass: 69.723000
    reduced_to: 1
  - symbol: Ga # 10
    coordinates: [  0.114710401709940,  0.218622934533307,  0.526512788280172 ]
    mass: 69.723000
    reduced_to: 1
  - symbol: Ga # 11
    coordinates: [  0.448043735043273,  0.218622934533307,  0.526512788280172 ]
    mass: 69.723000
    reduced_to: 1
  - symbol: Ga # 12
    coordinates: [  0.781377068376607,  0.218622934533307,  0.526512788280172 ]
    mass: 69.723000
    reduced_to: 1
  - symbol: Ga # 13
    coordinates: [  0.114710401709940,  0.551956267866640,  0.526512788280172 ]
    mass: 69.723000
    reduced_to: 1
  - symbol: Ga # 14
    coordinates: [  0.448043735043273,  0.551956267866640,  0.526512788280172 ]
    mass: 69.723000
    reduced_to: 1
  - symbol: Ga # 15
    coordinates: [  0.781377068376607,  0.551956267866640,  0.526512788280172 ]
    mass: 69.723000
    reduced_to: 1
  - symbol: Ga # 16
    coordinates: [  0.114710401709940,  0.885289601199974,  0.526512788280172 ]
    mass: 69.723000
    reduced_to: 1
  - symbol: Ga # 17
    coordinates: [  0.448043735043273,  0.885289601199974,  0.526512788280172 ]
    mass: 69.723000
    reduced_to: 1
  - symbol: Ga # 18
    coordinates: [  0.781377068376607,  0.885289601199974,  0.526512788280172 ]
    mass: 69.723000
    reduced_to: 1
  - symbol: Ga # 19
    coordinates: [  0.114710401709940,  0.218622934533307,  0.859846121613505 ]
    mass: 69.723000
    reduced_to: 1
  - symbol: Ga # 20
    coordinates: [  0.448043735043273,  0.218622934533307,  0.859846121613505 ]
    mass: 69.723000
    reduced_to: 1
  - symbol: Ga # 21
    coordinates: [  0.781377068376607,  0.218622934533307,  0.859846121613505 ]
    mass: 69.723000
    reduced_to: 1
  - symbol: Ga # 22
    coordinates: [  0.114710401709940,  0.551956267866640,  0.859846121613505 ]
    mass: 69.723000
    reduced_to: 1
  - symbol: Ga # 23
    coordinates: [  0.448043735043273,  0.551956267866640,  0.859846121613505 ]
    mass: 69.723000
    reduced_to: 1
  - symbol: Ga # 24
    coordinates: [  0.781377068376607,  0.551956267866640,  0.859846121613505 ]
    mass: 69.723000
    reduced_to: 1
  - symbol: Ga # 25
    coordinates: [  0.114710401709940,  0.885289601199974,  0.859846121613505 ]
    mass: 69.723000
    reduced_to: 1
  - symbol: Ga # 26
    coordinates: [  0.448043735043273,  0.885289601199974,  0.859846121613505 ]
    mass: 69.723000
    reduced_to: 1
  - symbol: Ga # 27
    coordinates: [  0.781377068376607,  0.885289601199974,  0.859846121613505 ]
    mass: 69.723000
    reduced_to: 1
  - symbol: Ga # 28
    coordinates: [  0.218622931064007,  0.114710402495480,  0.140153878750877 ]
    mass: 69.723000
    reduced_to: 28
  - symbol: Ga # 29
    coordinates: [  0.551956264397340,  0.114710402495480,  0.140153878750877 ]
    mass: 69.723000
    reduced_to: 28
  - symbol: Ga # 30
    coordinates: [  0.885289597730673,  0.114710402495480,  0.140153878750877 ]
    mass: 69.723000
    reduced_to: 28
  - symbol: Ga # 31
    coordinates: [  0.218622931064007,  0.448043735828814,  0.140153878750877 ]
    mass: 69.723000
    reduced_to: 28
  - symbol: Ga # 32
    coordinates: [  0.551956264397340,  0.448043735828814,  0.140153878750877 ]
    mass: 69.723000
    reduced_to: 28
  - symbol: Ga # 33
    coordinates: [  0.885289597730673,  0.448043735828814,  0.140153878750877 ]
    mass: 69.723000
    reduced_to: 28
  - symbol: Ga # 34
    coordinates: [  0.218622931064007,  0.781377069162147,  0.140153878750877 ]
    mass: 69.723000
    reduced_to: 28
  - symbol: Ga # 35
    coordinates: [  0.551956264397340,  0.781377069162147,  0.140153878750877 ]
    mass: 69.723000
    reduced_to: 28
  - symbol: Ga # 36
    coordinates: [  0.885289597730673,  0.781377069162147,  0.140153878750877 ]
    mass: 69.723000
    reduced_to: 28
  - symbol: Ga # 37
    coordinates: [  0.218622931064007,  0.114710402495480,  0.473487212084210 ]
    mass: 69.723000
    reduced_to: 28
  - symbol: Ga # 38
    coordinates: [  0.551956264397340,  0.114710402495480,  0.473487212084210 ]
    mass: 69.723000
    reduced_to: 28
  - symbol: Ga # 39
    coordinates: [  0.885289597730673,  0.114710402495480,  0.473487212084210 ]
    mass: 69.723000
    reduced_to: 28
  - symbol: Ga # 40
    coordinates: [  0.218622931064007,  0.448043735828814,  0.473487212084210 ]
    mass: 69.723000
    reduced_to: 28
  - symbol: Ga # 41
    coordinates: [  0.551956264397340,  0.448043735828814,  0.473487212084210 ]
    mass: 69.723000
    reduced_to: 28
  - symbol: Ga # 42
    coordinates: [  0.885289597730673,  0.448043735828814,  0.473487212084210 ]
    mass: 69.723000
    reduced_to: 28
  - symbol: Ga # 43
    coordinates: [  0.218622931064007,  0.781377069162147,  0.473487212084210 ]
    mass: 69.723000
    reduced_to: 28
  - symbol: Ga # 44
    coordinates: [  0.551956264397340,  0.781377069162147,  0.473487212084210 ]
    mass: 69.723000
    reduced_to: 28
  - symbol: Ga # 45
    coordinates: [  0.885289597730673,  0.781377069162147,  0.473487212084210 ]
    mass: 69.723000
    reduced_to: 28
  - symbol: Ga # 46
    coordinates: [  0.218622931064007,  0.114710402495480,  0.806820545417544 ]
    mass: 69.723000
    reduced_to: 28
  - symbol: Ga # 47
    coordinates: [  0.551956264397340,  0.114710402495480,  0.806820545417544 ]
    mass: 69.723000
    reduced_to: 28
  - symbol: Ga # 48
    coordinates: [  0.885289597730673,  0.114710402495480,  0.806820545417544 ]
    mass: 69.723000
    reduced_to: 28
  - symbol: Ga # 49
    coordinates: [  0.218622931064007,  0.448043735828814,  0.806820545417544 ]
    mass: 69.723000
    reduced_to: 28
  - symbol: Ga # 50
    coordinates: [  0.551956264397340,  0.448043735828814,  0.806820545417544 ]
    mass: 69.723000
    reduced_to: 28
  - symbol: Ga # 51
    coordinates: [  0.885289597730673,  0.448043735828814,  0.806820545417544 ]
    mass: 69.723000
    reduced_to: 28
  - symbol: Ga # 52
    coordinates: [  0.218622931064007,  0.781377069162147,  0.806820545417544 ]
    mass: 69.723000
    reduced_to: 28
  - symbol: Ga # 53
    coordinates: [  0.551956264397340,  0.781377069162147,  0.806820545417544 ]
    mass: 69.723000
    reduced_to: 28
  - symbol: Ga # 54
    coordinates: [  0.885289597730673,  0.781377069162147,  0.806820545417544 ]
    mass: 69.723000
    reduced_to: 28
  - symbol: Ga # 55
    coordinates: [  0.051956266683441,  0.281377067814562,  0.026512787812510 ]
    mass: 69.723000
    reduced_to: 55
  - symbol: Ga # 56
    coordinates: [  0.385289600016774,  0.281377067814562,  0.026512787812510 ]
    mass: 69.723000
    reduced_to: 55
  - symbol: Ga # 57
    coordinates: [  0.718622933350108,  0.281377067814562,  0.026512787812510 ]
    mass: 69.723000
    reduced_to: 55
  - symbol: Ga # 58
    coordinates: [  0.051956266683441,  0.614710401147895,  0.026512787812510 ]
    mass: 69.723000
    reduced_to: 55
  - symbol: Ga # 59
    coordinates: [  0.385289600016774,  0.614710401147895,  0.026512787812510 ]
    mass: 69.723000
    reduced_to: 55
  - symbol: Ga # 60
    coordinates: [  0.718622933350108,  0.614710401147895,  0.026512787812510 ]
    mass: 69.723000
    reduced_to: 55
  - symbol: Ga # 61
    coordinates: [  0.051956266683441,  0.948043734481229,  0.026512787812510 ]
    mass: 69.723000
    reduced_to: 55
  - symbol: Ga # 62
    coordinates: [  0.385289600016774,  0.948043734481229,  0.026512787812510 ]
    mass: 69.723000
    reduced_to: 55
  - symbol: Ga # 63
    coordinates: [  0.718622933350108,  0.948043734481229,  0.026512787812510 ]
    mass: 69.723000
    reduced_to: 55
  - symbol: Ga # 64
    coordinates: [  0.051956266683441,  0.281377067814562,  0.359846121145844 ]
    mass: 69.723000
    reduced_to: 55
  - symbol: Ga # 65
    coordinates: [  0.385289600016774,  0.281377067814562,  0.359846121145844 ]
    mass: 69.723000
    reduced_to: 55
  - symbol: Ga # 66
    coordinates: [  0.718622933350108,  0.281377067814562,  0.359846121145844 ]
    mass: 69.723000
    reduced_to: 55
  - symbol: Ga # 67
    coordinates: [  0.051956266683441,  0.614710401147895,  0.359846121145844 ]
    mass: 69.723000
    reduced_to: 55
  - symbol: Ga # 68
    coordinates: [  0.385289600016774,  0.614710401147895,  0.359846121145844 ]
    mass: 69.723000
    reduced_to: 55
  - symbol: Ga # 69
    coordinates: [  0.718622933350108,  0.614710401147895,  0.359846121145844 ]
    mass: 69.723000
    reduced_to: 55
  - symbol: Ga # 70
    coordinates: [  0.051956266683441,  0.948043734481229,  0.359846121145844 ]
    mass: 69.723000
    reduced_to: 55
  - symbol: Ga # 71
    coordinates: [  0.385289600016774,  0.948043734481229,  0.359846121145844 ]
    mass: 69.723000
    reduced_to: 55
  - symbol: Ga # 72
    coordinates: [  0.718622933350108,  0.948043734481229,  0.359846121145844 ]
    mass: 69.723000
    reduced_to: 55
  - symbol: Ga # 73
    coordinates: [  0.051956266683441,  0.281377067814562,  0.693179454479177 ]
    mass: 69.723000
    reduced_to: 55
  - symbol: Ga # 74
    coordinates: [  0.385289600016774,  0.281377067814562,  0.693179454479177 ]
    mass: 69.723000
    reduced_to: 55
  - symbol: Ga # 75
    coordinates: [  0.718622933350108,  0.281377067814562,  0.693179454479177 ]
    mass: 69.723000
    reduced_to: 55
  - symbol: Ga # 76
    coordinates: [  0.051956266683441,  0.614710401147895,  0.693179454479177 ]
    mass: 69.723000
    reduced_to: 55
  - symbol: Ga # 77
    coordinates: [  0.385289600016774,  0.614710401147895,  0.693179454479177 ]
    mass: 69.723000
    reduced_to: 55
  - symbol: Ga # 78
    coordinates: [  0.718622933350108,  0.614710401147895,  0.693179454479177 ]
    mass: 69.723000
    reduced_to: 55
  - symbol: Ga # 79
    coordinates: [  0.051956266683441,  0.948043734481229,  0.693179454479177 ]
    mass: 69.723000
    reduced_to: 55
  - symbol: Ga # 80
    coordinates: [  0.385289600016774,  0.948043734481229,  0.693179454479177 ]
    mass: 69.723000
    reduced_to: 55
  - symbol: Ga # 81
    coordinates: [  0.718622933350108,  0.948043734481229,  0.693179454479177 ]
    mass: 69.723000
    reduced_to: 55
  - symbol: Ga # 82
    coordinates: [  0.281377067147242,  0.051956261832829,  0.306820545184222 ]
    mass: 69.723000
    reduced_to: 82
  - symbol: Ga # 83
    coordinates: [  0.614710400480575,  0.051956261832829,  0.306820545184222 ]
    mass: 69.723000
    reduced_to: 82
  - symbol: Ga # 84
    coordinates: [  0.948043733813908,  0.051956261832829,  0.306820545184222 ]
    mass: 69.723000
    reduced_to: 82
  - symbol: Ga # 85
    coordinates: [  0.281377067147242,  0.385289595166163,  0.306820545184222 ]
    mass: 69.723000
    reduced_to: 82
  - symbol: Ga # 86
    coordinates: [  0.614710400480575,  0.385289595166163,  0.306820545184222 ]
    mass: 69.723000
    reduced_to: 82
  - symbol: Ga # 87
    coordinates: [  0.948043733813908,  0.385289595166163,  0.306820545184222 ]
    mass: 69.723000
    reduced_to: 82
  - symbol: Ga # 88
    coordinates: [  0.281377067147242,  0.718622928499496,  0.306820545184222 ]
    mass: 69.723000
    reduced_to: 82
  - symbol: Ga # 89
    coordinates: [  0.614710400480575,  0.718622928499496,  0.306820545184222 ]
    mass: 69.723000
    reduced_to: 82
  - symbol: Ga # 90
    coordinates: [  0.948043733813908,  0.718622928499496,  0.306820545184222 ]
    mass: 69.723000
    reduced_to: 82
  - symbol: Ga # 91
    coordinates: [  0.281377067147242,  0.051956261832829,  0.640153878517556 ]
    mass: 69.723000
    reduced_to: 82
  - symbol: Ga # 92
    coordinates: [  0.614710400480575,  0.051956261832829,  0.640153878517556 ]
    mass: 69.723000
    reduced_to: 82
  - symbol: Ga # 93
    coordinates: [  0.948043733813908,  0.051956261832829,  0.640153878517556 ]
    mass: 69.723000
    reduced_to: 82
  - symbol: Ga # 94
    coordinates: [  0.281377067147242,  0.385289595166163,  0.640153878517556 ]
    mass: 69.723000
    reduced_to: 82
  - symbol: Ga # 95
    coordinates: [  0.614710400480575,  0.385289595166163,  0.640153878517556 ]
    mass: 69.723000
    reduced_to: 82
  - symbol: Ga # 96
    coordinates: [  0.948043733813908,  0.385289595166163,  0.640153878517556 ]
    mass: 69.723000
    reduced_to: 82
  - symbol: Ga # 97
    coordinates: [  0.281377067147242,  0.718622928499496,  0.640153878517556 ]
    mass: 69.723000
    reduced_to: 82
  - symbol: Ga # 98
    coordinates: [  0.614710400480575,  0.718622928499496,  0.640153878517556 ]
    mass: 69.723000
    reduced_to: 82
  - symbol: Ga # 99
    coordinates: [  0.948043733813908,  0.718622928499496,  0.640153878517556 ]
    mass: 69.723000
    reduced_to: 82
  - symbol: Ga # 100
    coordinates: [  0.281377067147242,  0.051956261832829,  0.973487211850889 ]
    mass: 69.723000
    reduced_to: 82
  - symbol: Ga # 101
    coordinates: [  0.614710400480575,  0.051956261832829,  0.973487211850889 ]
    mass: 69.723000
    reduced_to: 82
  - symbol: Ga # 102
    coordinates: [  0.948043733813908,  0.051956261832829,  0.973487211850889 ]
    mass: 69.723000
    reduced_to: 82
  - symbol: Ga # 103
    coordinates: [  0.281377067147242,  0.385289595166163,  0.973487211850889 ]
    mass: 69.723000
    reduced_to: 82
  - symbol: Ga # 104
    coordinates: [  0.614710400480575,  0.385289595166163,  0.973487211850889 ]
    mass: 69.723000
    reduced_to: 82
  - symbol: Ga # 105
    coordinates: [  0.948043733813908,  0.385289595166163,  0.973487211850889 ]
    mass: 69.723000
    reduced_to: 82
  - symbol: Ga # 106
    coordinates: [  0.281377067147242,  0.718622928499496,  0.973487211850889 ]
    mass: 69.723000
    reduced_to: 82
  - symbol: Ga # 107
    coordinates: [  0.614710400480575,  0.718622928499496,  0.973487211850889 ]
    mass: 69.723000
    reduced_to: 82
  - symbol: Ga # 108
    coordinates: [  0.948043733813908,  0.718622928499496,  0.973487211850889 ]
    mass: 69.723000
    reduced_to: 82

displacements:
- atom:    1
  displacement:
    [   0.0100000000000000,  0.0000000000000000,  0.0000000000000000 ]
  forces:
  - [   0.0778928697109222, -0.0614510104060173, -0.1228733286261559 ]
  - [   0.1174426823854446, -0.0682410150766373, -0.1286206245422363 ]
  - [   0.1173925027251244, -0.0673736929893494, -0.1277622133493423 ]
  - [   0.1171486079692841, -0.0683843791484833, -0.1282905489206314 ]
  - [   0.1167653948068619, -0.0676344633102417, -0.1278634816408157 ]
  - [   0.1166347265243530, -0.0676677674055099, -0.1283036172389984 ]
  - [   0.1171598210930824, -0.0675312057137489, -0.1286515742540359 ]
  - [   0.1166357100009918, -0.0676699578762054, -0.1283077001571655 ]
  - [   0.1167516931891441, -0.0683759227395058, -0.1282080709934235 ]
  - [   0.1168101429939270, -0.0678396299481392, -0.1276964247226715 ]
  - [   0.1166809797286987, -0.0677615553140640, -0.1282363235950470 ]
  - [   0.1164867728948593, -0.0676734149456024, -0.1282548010349274 ]
  - [   0.1164413541555405, -0.0676063299179077, -0.1282644718885422 ]
  - [   0.1165833324193954, -0.0677348673343658, -0.1281803101301193 ]
  - [   0.1166396439075470, -0.0677357017993927, -0.1282996535301208 ]
  - [   0.1167141646146774, -0.0677779167890549, -0.1282361000776291 ]
  - [   0.1166734993457794, -0.0677396208047867, -0.1282670497894287 ]
  - [   0.1165659129619598, -0.0676578879356384, -0.1283380687236786 ]
  - [   0.1168147623538971, -0.0678413733839989, -0.1288387328386307 ]
  - [   0.1164892017841339, -0.0675823688507080, -0.1281651556491852 ]
  - [   0.1166813671588898, -0.0677954405546188, -0.1282799243927002 ]
  - [   0.1167150810360909, -0.0677427724003792, -0.1282771974802017 ]
  - [   0.1165660843253136, -0.0677467361092567, -0.1282808482646942 ]
  - [   0.1166724115610123, -0.0677410960197449, -0.1282873302698135 ]
  - [   0.1164420843124390, -0.0677006468176842, -0.1281934231519699 ]
  - [   0.1166387721896172, -0.0677362605929375, -0.1282855272293091 ]
  - [   0.1165839582681656, -0.0676497295498848, -0.1281792074441910 ]
  - [  -0.0958765447139740,  0.0542255006730556,  0.1197987720370293 ]
  - [  -0.1169200018048286,  0.0677332133054733,  0.1282748579978943 ]
  - [  -0.1057159006595612,  0.0742587447166443,  0.1322329044342041 ]
  - [  -0.1186572089791298,  0.0668664947152138,  0.1268493235111237 ]
  - [  -0.1166620925068855,  0.0674882978200912,  0.1282942742109299 ]
  - [  -0.1166821196675301,  0.0678399801254272,  0.1283957958221436 ]
  - [  -0.1167082041501999,  0.0678552314639091,  0.1283280551433563 ]
  - [  -0.1166871190071106,  0.0677964165806770,  0.1282280683517456 ]
  - [  -0.1163940355181694,  0.0676411613821983,  0.1282156705856323 ]
  - [  -0.1166617423295975,  0.0676779523491859,  0.1282094419002533 ]
  - [  -0.1166307777166367,  0.0677456706762314,  0.1282403171062469 ]
  - [  -0.1163858771324158,  0.0669074133038521,  0.1283601671457291 ]
  - [  -0.1148844882845879,  0.0677618384361267,  0.1278440058231354 ]
  - [  -0.1165795251727104,  0.0678068995475769,  0.1284028887748718 ]
  - [  -0.1165841445326805,  0.0676827579736710,  0.1282427310943604 ]
  - [  -0.1166434437036514,  0.0677393600344658,  0.1282495111227036 ]
  - [  -0.1164792925119400,  0.0678216964006424,  0.1284196674823761 ]
  - [  -0.1167071312665939,  0.0677308067679405,  0.1282845288515091 ]
  - [  -0.1167123615741730,  0.0678093060851097,  0.1282473653554916 ]
  - [  -0.1166323125362396,  0.0677318274974823,  0.1282570660114288 ]
  - [  -0.1165932267904282,  0.0677251815795898,  0.1282238066196442 ]
  - [  -0.1166788786649704,  0.0676791593432426,  0.1282770037651062 ]
  - [  -0.1166648566722870,  0.0676916763186455,  0.1283368319272995 ]
  - [  -0.1166854798793793,  0.0677663385868073,  0.1282424479722977 ]
  - [  -0.1166417747735977,  0.0677285268902779,  0.1282772719860077 ]
  - [  -0.1166107207536697,  0.0677785426378250,  0.1283242255449295 ]
  - [  -0.1165940165519714,  0.0677327066659927,  0.1282956600189209 ]
  - [  -0.1154397279024124,  0.0646855682134628, -0.1216246262192726 ]
  - [  -0.1152637079358101,  0.0684947669506073, -0.1293399482965469 ]
  - [  -0.1167304590344429,  0.0677589029073715, -0.1283042132854462 ]
  - [  -0.1166563779115677,  0.0677888840436935, -0.1282785534858704 ]
  - [  -0.1166462823748589,  0.0678785890340805, -0.1280865818262100 ]
  - [  -0.1166330799460411,  0.0677388012409210, -0.1282392740249634 ]
  - [  -0.1165769547224045,  0.0667882561683655, -0.1289403438568115 ]
  - [  -0.1165662109851837,  0.0676825270056725, -0.1283556371927261 ]
  - [  -0.1174498349428177,  0.0660798028111458, -0.1292498260736465 ]
  - [  -0.1154388859868050,  0.0646726638078690, -0.1352778375148773 ]
  - [  -0.1152681037783623,  0.0675355717539787, -0.1272555589675903 ]
  - [  -0.1167305856943130,  0.0677464455366135, -0.1282435655593872 ]
  - [  -0.1166560202836990,  0.0678000450134277, -0.1282744407653809 ]
  - [  -0.1166517436504364,  0.0665250048041344, -0.1289411187171936 ]
  - [  -0.1166324615478516,  0.0677373260259628, -0.1283078640699387 ]
  - [  -0.1165833398699760,  0.0677408427000046, -0.1281121969223022 ]
  - [  -0.1165665239095688,  0.0676808580756187, -0.1283440440893173 ]
  - [  -0.1174608021974564,  0.0674089491367340, -0.1280654072761536 ]
  - [  -0.1165889725089073,  0.0676659941673279, -0.1283253133296967 ]
  - [  -0.1166760399937630,  0.0677166283130646, -0.1282855272293091 ]
  - [  -0.1166228875517845,  0.0677312314510345, -0.1282976865768433 ]
  - [  -0.1166268587112427,  0.0677264779806137, -0.1282932460308075 ]
  - [  -0.1166092008352280,  0.0677509605884552, -0.1283283680677414 ]
  - [  -0.1166272833943367,  0.0677231177687645, -0.1282962262630463 ]
  - [  -0.1166019290685654,  0.0677597671747208, -0.1282762736082077 ]
  - [  -0.1166077256202698,  0.0677155926823616, -0.1282891035079956 ]
  - [  -0.1166304573416710,  0.0677393898367882, -0.1283278763294220 ]
  - [   0.1177116185426712, -0.0683231949806213,  0.1287559270858765 ]
  - [   0.1165426746010780, -0.0677950456738472,  0.1283504813909531 ]
  - [   0.1166393756866455, -0.0610286369919777,  0.1238324940204620 ]
  - [   0.1165750771760941, -0.0621076673269272,  0.1323312222957611 ]
  - [   0.1165473386645317, -0.0676460787653923,  0.1283504366874695 ]
  - [   0.1176855862140656, -0.0683059692382812,  0.1278448253870010 ]
  - [   0.1164841800928116, -0.0676771327853203,  0.1282609105110168 ]
  - [   0.1166995614767075, -0.0676801577210426,  0.1282331794500351 ]
  - [   0.1164860501885414, -0.0678260773420334,  0.1283352673053741 ]
  - [   0.1166161745786667, -0.0677344352006912,  0.1283199489116669 ]
  - [   0.1166408360004425, -0.0677325949072838,  0.1282886266708374 ]
  - [   0.1166876554489136, -0.0676867589354515,  0.1283667534589767 ]
  - [   0.1166902035474777, -0.0677981674671173,  0.1282911449670792 ]
  - [   0.1166436374187469, -0.0677180737257004,  0.1282989680767059 ]
  - [   0.1166144758462906, -0.0677349343895912,  0.1282810121774673 ]
  - [   0.1166300103068352, -0.0677213296294212,  0.1282949745655060 ]
  - [   0.1166050359606743, -0.0677587985992432,  0.1282880753278732 ]
  - [   0.1166302263736725, -0.0677350983023643,  0.1282918900251389 ]
  - [   0.1157671883702278, -0.0669938176870346,  0.1306750029325485 ]
  - [   0.1166041195392609, -0.0677908807992935,  0.1282172054052353 ]
  - [   0.1172074526548386, -0.0676701366901398,  0.1285607069730759 ]
  - [   0.1172101348638535, -0.0679123476147652,  0.1280433833599091 ]
  - [   0.1166049838066101, -0.0678002610802650,  0.1283058077096939 ]
  - [   0.1157434880733490, -0.0669796541333199,  0.1282595247030258 ]
  - [   0.1166856661438942, -0.0677502676844597,  0.1282827854156494 ]
  - [   0.1165534779429436, -0.0674543380737305,  0.1283681690692902 ]
  - [   0.1166859567165375, -0.0677411034703255,  0.1283209919929504 ]
- atom:    1
  displacement:
    [  -0.0100000000000000,  0.0000000000000000,  0.0000000000000000 ]
  forces:
  - [   0.1547792553901672, -0.0732071325182915, -0.1333981901407242 ]
  - [   0.1158700510859489, -0.0672144889831543, -0.1279725134372711 ]
  - [   0.1158195436000824, -0.0680832937359810, -0.1288291811943054 ]
  - [   0.1160961985588074, -0.0670609772205353, -0.1283000260591507 ]
  - [   0.1164884865283966, -0.0678074061870575, -0.1287329941987991 ]
  - [   0.1166167631745338, -0.0677831172943115, -0.1282906532287598 ]
  - [   0.1161075383424759, -0.0679440796375275, -0.1279481947422028 ]
  - [   0.1166180968284607, -0.0677859932184219, -0.1282847374677658 ]
  - [   0.1164750009775162, -0.0670849233865738, -0.1283930689096451 ]
  - [   0.1164321154356003, -0.0676115453243256, -0.1289039105176926 ]
  - [   0.1165688782930374, -0.0676942542195320, -0.1283569484949112 ]
  - [   0.1167639195919037, -0.0677804946899414, -0.1283368468284607 ]
  - [   0.1168107390403748, -0.0678430348634720, -0.1283288598060608 ]
  - [   0.1166647449135780, -0.0677180737257004, -0.1284164041280746 ]
  - [   0.1166127249598503, -0.0677181407809258, -0.1282957345247269 ]
  - [   0.1165366172790527, -0.0676789730787277, -0.1283607631921768 ]
  - [   0.1165767014026642, -0.0677155852317810, -0.1283273398876190 ]
  - [   0.1166828349232674, -0.0677952095866203, -0.1282617151737213 ]
  - [   0.1164364814758301, -0.0676140189170837, -0.1277537643909454 ]
  - [   0.1167667135596275, -0.0678715407848358, -0.1284302324056625 ]
  - [   0.1165690273046494, -0.0676587522029877, -0.1283151209354401 ]
  - [   0.1165376305580139, -0.0677129179239273, -0.1283171921968460 ]
  - [   0.1166825592517853, -0.0677101984620094, -0.1283130049705505 ]
  - [   0.1165753155946732, -0.0677163675427437, -0.1283085793256760 ]
  - [   0.1168119236826897, -0.0677559971809387, -0.1284020245075226 ]
  - [   0.1166115552186966, -0.0677186846733093, -0.1283089071512222 ]
  - [   0.1166656538844109, -0.0678063705563545, -0.1284165531396866 ]
  - [  -0.1366444677114487,  0.0805877223610878,  0.1363937258720398 ]
  - [  -0.1163337379693985,  0.0677164420485497,  0.1283135712146759 ]
  - [  -0.1277748942375183,  0.0609812512993813,  0.1242527216672897 ]
  - [  -0.1145984008908272,  0.0684959888458252,  0.1298028826713562 ]
  - [  -0.1165870875120163,  0.0679636746644974,  0.1282959878444672 ]
  - [  -0.1165721118450165,  0.0676145851612091,  0.1281940788030624 ]
  - [  -0.1165435835719109,  0.0675977170467377,  0.1282652467489243 ]
  - [  -0.1165655553340912,  0.0676537752151489,  0.1283657550811768 ]
  - [  -0.1168558448553085,  0.0678103864192963,  0.1283786296844482 ]
  - [  -0.1165851205587387,  0.0677744895219803,  0.1283876746892929 ]
  - [  -0.1166232973337173,  0.0677076429128647,  0.1283498406410217 ]
  - [  -0.1168654263019562,  0.0685430839657784,  0.1282423585653305 ]
  - [  -0.1183657646179199,  0.0676846429705620,  0.1287342160940170 ]
  - [  -0.1166688650846481,  0.0676500946283340,  0.1281902790069580 ]
  - [  -0.1166726797819138,  0.0677713900804520,  0.1283496618270874 ]
  - [  -0.1166092455387115,  0.0677163079380989,  0.1283431351184845 ]
  - [  -0.1167717427015305,  0.0676335766911507,  0.1281728297472000 ]
  - [  -0.1165432110428810,  0.0677192062139511,  0.1283104121685028 ]
  - [  -0.1165431812405586,  0.0676439851522446,  0.1283474266529083 ]
  - [  -0.1166209727525711,  0.0677195861935616,  0.1283368170261383 ]
  - [  -0.1166583895683289,  0.0677248835563660,  0.1283726245164871 ]
  - [  -0.1165769696235657,  0.0677749216556549,  0.1283180862665176 ]
  - [  -0.1165870949625969,  0.0677605345845222,  0.1282583475112915 ]
  - [  -0.1165601685643196,  0.0676851868629456,  0.1283521354198456 ]
  - [  -0.1166127249598503,  0.0677263140678406,  0.1283172070980072 ]
  - [  -0.1166389957070351,  0.0676770210266113,  0.1282712519168854 ]
  - [  -0.1166547015309334,  0.0677219778299332,  0.1282965540885925 ]
  - [  -0.1177382916212082,  0.0708061829209328, -0.1349901109933853 ]
  - [  -0.1179689019918442,  0.0669835209846497, -0.1272703111171722 ]
  - [  -0.1165245771408081,  0.0676984265446663, -0.1282891780138016 ]
  - [  -0.1165948435664177,  0.0676691010594368, -0.1283156275749207 ]
  - [  -0.1165936291217804,  0.0675875544548035, -0.1285164356231689 ]
  - [  -0.1166171878576279,  0.0677176415920258, -0.1283509135246277 ]
  - [  -0.1166694387793541,  0.0686539411544800, -0.1276648044586182 ]
  - [  -0.1166841387748718,  0.0677754729986191, -0.1282373368740082 ]
  - [  -0.1157905608415604,  0.0693998485803604, -0.1273271739482880 ]