# Thermal properties / unit cell (natom)

unit:
  temperature:   K
  free_energy:   kJ/mol
  entropy:       J/K/mol
  heat_capacity: J/K/mol

natom: 8    
cutoff_frequency: 0.00000
num_modes: 187200
num_integrated_modes: 187198

zero_point_energy:      26.8913499

thermal_properties:
- temperature:         0.0000000
  free_energy:        26.8913499
  entropy:             0.0000000
  heat_capacity:       0.0000000
  energy:             26.8913499

- temperature:        10.0000000
  free_energy:        26.8902977
  entropy:             0.4182439
  heat_capacity:       1.4332171
  energy:             26.8944801

- temperature:        20.0000000
  free_energy:        26.8712329
  entropy:             4.2348942
  heat_capacity:      12.6979003
  energy:             26.9559308

- temperature:        30.0000000
  free_energy:        26.7899954
  entropy:            12.6312930
  heat_capacity:      30.1775212
  energy:             27.1689342

- temperature:        40.0000000
  free_energy:        26.6098916
  entropy:            23.6689013
  heat_capacity:      47.0135311
  energy:             27.5566477

- temperature:        50.0000000
  free_energy:        26.3131632
  entropy:            35.7717949
  heat_capacity:      61.6698721
  energy:             28.1017530

- temperature:        60.0000000
  free_energy:        25.8934744
  entropy:            48.1830532
  heat_capacity:      74.6442553
  energy:             28.7844576

- temperature:        70.0000000
  free_energy:        25.3495351
  entropy:            60.5896497
  heat_capacity:      86.4588626
  energy:             29.5908106

- temperature:        80.0000000
  free_energy:        24.6821607
  entropy:            72.8542636
  heat_capacity:      97.3279551
  energy:             30.5105018

- temperature:        90.0000000
  free_energy:        23.8931753
  entropy:            84.9019860
  heat_capacity:     107.2911815
  energy:             31.5343540

- temperature:       100.0000000
  free_energy:        22.9850123
  entropy:            96.6827553
  heat_capacity:     116.3437908
  energy:             32.6532879

- temperature:       110.0000000
  free_energy:        21.9605304
  entropy:           108.1608388
  heat_capacity:     124.4952216
  energy:             33.8582226

- temperature:       120.0000000
  free_energy:        20.8228869
  entropy:           119.3118472
  heat_capacity:     131.7822792
  energy:             35.1403086

- temperature:       130.0000000
  free_energy:        19.5754334
  entropy:           130.1211433
  heat_capacity:     138.2638831
  energy:             36.4911820

- temperature:       140.0000000
  free_energy:        18.2216254
  entropy:           140.5822430
  heat_capacity:     144.0115825
  energy:             37.9031394

- temperature:       150.0000000
  free_energy:        16.7649497
  entropy:           150.6951390
  heat_capacity:     149.1013089
  energy:             39.3692206

- temperature:       160.0000000
  free_energy:        15.2088674
  entropy:           160.4647139
  heat_capacity:     153.6076834
  energy:             40.8832216

- temperature:       170.0000000
  free_energy:        13.5567721
  entropy:           169.8993616
  heat_capacity:     157.6006495
  energy:             42.4396636

- temperature:       180.0000000
  free_energy:        11.8119608
  entropy:           179.0098622
  heat_capacity:     161.1438035
  energy:             44.0337360

- temperature:       190.0000000
  free_energy:         9.9776145
  entropy:           187.8085026
  heat_capacity:     164.2938312
  energy:             45.6612300

- temperature:       200.0000000
  free_energy:         8.0567866
  entropy:           196.3084129
  heat_capacity:     167.1006013
  energy:             47.3184692

- temperature:       210.0000000
  free_energy:         6.0523971
  entropy:           204.5230782
  heat_capacity:     169.6076155
  energy:             49.0022435

- temperature:       220.0000000
  free_energy:         3.9672308
  entropy:           212.4659902
  heat_capacity:     171.8526198
  energy:             50.7097487

- temperature:       230.0000000
  free_energy:         1.8039389
  entropy:           220.1504042
  heat_capacity:     173.8682669
  energy:             52.4385319

- temperature:       240.0000000
  free_energy:        -0.4349585
  entropy:           227.5891768
  heat_capacity:     175.6827620
  energy:             54.1864439

- temperature:       250.0000000
  free_energy:        -2.7470671
  entropy:           234.7946609
  heat_capacity:     177.3204615
  energy:             55.9515982

- temperature:       260.0000000
  free_energy:        -5.1301134
  entropy:           241.7786452
  heat_capacity:     178.8024094
  energy:             57.7323343

- temperature:       270.0000000
  free_energy:        -7.5819390
  entropy:           248.5523228
  heat_capacity:     180.1468086
  energy:             59.5271881

- temperature:       280.0000000
  free_energy:       -10.1004942
  entropy:           255.1262822
  heat_capacity:     181.3694293
  energy:             61.3348648

- temperature:       290.0000000
  free_energy:       -12.6838323
  entropy:           261.5105135
  heat_capacity:     182.4839597
  energy:             63.1542166

- temperature:       300.0000000
  free_energy:       -15.3301035
  entropy:           267.7144235
  heat_capacity:     183.5023065
  energy:             64.9842235

- temperature:       310.0000000
  free_energy:       -18.0375493
  entropy:           273.7468585
  heat_capacity:     184.4348495
  energy:             66.8239769

- temperature:       320.0000000
  free_energy:       -20.8044968
  entropy:           279.6161304
  heat_capacity:     185.2906589
  energy:             68.6726649

- temperature:       330.0000000
  free_energy:       -23.6293541
  entropy:           285.3300452
  heat_capacity:     186.0776796
  energy:             70.5295608

- temperature:       340.0000000
  free_energy:       -26.5106044
  entropy:           290.8959320
  heat_capacity:     186.8028878
  energy:             72.3940125

- temperature:       350.0000000
  free_energy:       -29.4468023
  entropy:           296.3206725
  heat_capacity:     187.4724239
  energy:             74.2654331

- temperature:       360.0000000
  free_energy:       -32.4365689
  entropy:           301.6107291
  heat_capacity:     188.0917055
  energy:             76.1432936

- temperature:       370.0000000
  free_energy:       -35.4785882
  entropy:           306.7721727
  heat_capacity:     188.6655244
  energy:             78.0271157

- temperature:       380.0000000
  free_energy:       -38.5716027
  entropy:           311.8107090
  heat_capacity:     189.1981283
  energy:             79.9164667

- temperature:       390.0000000
  free_energy:       -41.7144106
  entropy:           316.7317029
  heat_capacity:     189.6932917
  energy:             81.8109535

- temperature:       400.0000000
  free_energy:       -44.9058618
  entropy:           321.5402020
  heat_capacity:     190.1543759
  energy:             83.7102190

- temperature:       410.0000000
  free_energy:       -48.1448555
  entropy:           326.2409586
  heat_capacity:     190.5843809
  energy:             85.6139375

- temperature:       420.0000000
  free_energy:       -51.4303368
  entropy:           330.8384495
  heat_capacity:     190.9859902
  energy:             87.5218120

- temperature:       430.0000000
  free_energy:       -54.7612944
  entropy:           335.3368955
  heat_capacity:     191.3616089
  energy:             89.4335707

- temperature:       440.0000000
  free_energy:       -58.1367579
  entropy:           339.7402787
  heat_capacity:     191.7133971
  energy:             91.3489647

- temperature:       450.0000000
  free_energy:       -61.5557956
  entropy:           344.0523585
  heat_capacity:     192.0432988
  energy:             93.2677657

- temperature:       460.0000000
  free_energy:       -65.0175126
  entropy:           348.2766874
  heat_capacity:     192.3530667
  energy:             95.1897636

- temperature:       470.0000000
  free_energy:       -68.5210481
  entropy:           352.4166241
  heat_capacity:     192.6442842
  energy:             97.1147652

- temperature:       480.0000000
  free_energy:       -72.0655743
  entropy:           356.4753471
  heat_capacity:     192.9183843
  energy:             99.0425923

- temperature:       490.0000000
  free_energy:       -75.6502944
  entropy:           360.4558665
  heat_capacity:     193.1766658
  energy:            100.9730802

- temperature:       500.0000000
  free_energy:       -79.2744405
  entropy:           364.3610347
  heat_capacity:     193.4203084
  energy:            102.9060768

- temperature:       510.0000000
  free_energy:       -82.9372729
  entropy:           368.1935570
  heat_capacity:     193.6503853
  energy:            104.8414412

- temperature:       520.0000000
  free_energy:       -86.6380781
  entropy:           371.9560012
  heat_capacity:     193.8678740
  energy:            106.7790426

- temperature:       530.0000000
  free_energy:       -90.3761675
  entropy:           375.6508060
  heat_capacity:     194.0736667
  energy:            108.7187597

- temperature:       540.0000000
  free_energy:       -94.1508765
  entropy:           379.2802891
  heat_capacity:     194.2685787
  energy:            110.6604796

- temperature:       550.0000000
  free_energy:       -97.9615629
  entropy:           382.8466552
  heat_capacity:     194.4533563
  energy:            112.6040975

- temperature:       560.0000000
  free_energy:      -101.8076062
  entropy:           386.3520026
  heat_capacity:     194.6286834
  energy:            114.5495153

- temperature:       570.0000000
  free_energy:      -105.6884062
  entropy:           389.7983298
  heat_capacity:     194.7951879
  energy:            116.4966417

- temperature:       580.0000000
  free_energy:      -109.6033824
  entropy:           393.1875413
  heat_capacity:     194.9534466
  energy:            118.4453915

- temperature:       590.0000000
  free_energy:      -113.5519727
  entropy:           396.5214537
  heat_capacity:     195.1039907
  energy:            120.3956849

- temperature:       600.0000000
  free_energy:      -117.5336329
  entropy:           399.8018004
  heat_capacity:     195.2473094
  energy:            122.3474473

- temperature:       610.0000000
  free_energy:      -121.5478357
  entropy:           403.0302365
  heat_capacity:     195.3838541
  energy:            124.3006086

- temperature:       620.0000000
  free_energy:      -125.5940699
  entropy:           406.2083437
  heat_capacity:     195.5140419
  energy:            126.2551032

- temperature:       630.0000000
  free_energy:      -129.6718399
  entropy:           409.3376339
  heat_capacity:     195.6382584
  energy:            128.2108695

- temperature:       640.0000000
  free_energy:      -133.7806647
  entropy:           412.4195536
  heat_capacity:     195.7568606
  energy:            130.1678496

- temperature:       650.0000000
  free_energy:      -137.9200777
  entropy:           415.4554873
  heat_capacity:     195.8701796
  energy:            132.1259891

- temperature:       660.0000000
  free_energy:      -142.0896256
  entropy:           418.4467609
  heat_capacity:     195.9785224
  energy:            134.0852366

- temperature:       670.0000000
  free_energy:      -146.2888683
  entropy:           421.3946450
  heat_capacity:     196.0821742
  energy:            136.0455439

- temperature:       680.0000000
  free_energy:      -150.5173779
  entropy:           424.3003578
  heat_capacity:     196.1814004
  energy:            138.0068654

- temperature:       690.0000000
  free_energy:      -154.7747387
  entropy:           427.1650677
  heat_capacity:     196.2764477
  energy:            139.9691580

- temperature:       700.0000000
  free_energy:      -159.0605463
  entropy:           429.9898964
  heat_capacity:     196.3675462
  energy:            141.9323812

- temperature:       710.0000000
  free_energy:      -163.3744073
  entropy:           432.7759208
  heat_capacity:     196.4549103
  energy:            143.8964965

- temperature:       720.0000000
  free_energy:      -167.7159389
  entropy:           435.5241756
  heat_capacity:     196.5387403
  energy:            145.8614676

- temperature:       730.0000000
  free_energy:      -172.0847683
  entropy:           438.2356553
  heat_capacity:     196.6192232
  energy:            147.8272601

- temperature:       740.0000000
  free_energy:      -176.4805326
  entropy:           440.9113163
  heat_capacity:     196.6965339
  energy:            149.7938415

- temperature:       750.0000000
  free_energy:      -180.9028783
  entropy:           443.5520787
  heat_capacity:     196.7708361
  energy:            151.7611808

- temperature:       760.0000000
  free_energy:      -185.3514608
  entropy:           446.1588282
  heat_capacity:     196.8422831
  energy:            153.7292487

- temperature:       770.0000000
  free_energy:      -189.8259443
  entropy:           448.7324178
  heat_capacity:     196.9110186
  energy:            155.6980174

- temperature:       780.0000000
  free_energy:      -194.3260014
  entropy:           451.2736690
  heat_capacity:     196.9771774
  energy:            157.6674605

- temperature:       790.0000000
  free_energy:      -198.8513125
  entropy:           453.7833738
  heat_capacity:     197.0408862
  energy:            159.6375528

- temperature:       800.0000000
  free_energy:      -203.4015662
  entropy:           456.2622958
  heat_capacity:     197.1022638
  energy:            161.6082704

- temperature:       810.0000000
  free_energy:      -207.9764583
  entropy:           458.7111715
  heat_capacity:     197.1614222
  energy:            163.5795907

- temperature:       820.0000000
  free_energy:      -212.5756919
  entropy:           461.1307118
  heat_capacity:     197.2184666
  energy:            165.5514918

- temperature:       830.0000000
  free_energy:      -217.1989770
  entropy:           463.5216028
  heat_capacity:     197.2734961
  energy:            167.5239533

- temperature:       840.0000000
  free_energy:      -221.8460306
  entropy:           465.8845071
  heat_capacity:     197.3266041
  energy:            169.4969553

- temperature:       850.0000000
  free_energy:      -226.5165760
  entropy:           468.2200650
  heat_capacity:     197.3778787
  energy:            171.4704792

- temperature:       860.0000000
  free_energy:      -231.2103429
  entropy:           470.5288953
  heat_capacity:     197.4274029
  energy:            173.4445071

- temperature:       870.0000000
  free_energy:      -235.9270668
  entropy:           472.8115961
  heat_capacity:     197.4752553
  energy:            175.4190217

- temperature:       880.0000000
  free_energy:      -240.6664896
  entropy:           475.0687460
  heat_capacity:     197.5215100
  energy:            177.3940069

- temperature:       890.0000000
  free_energy:      -245.4283585
  entropy:           477.3009048
  heat_capacity:     197.5662370
  energy:            179.3694468

- temperature:       900.0000000
  free_energy:      -250.2124262
  entropy:           479.5086144
  heat_capacity:     197.6095026
  energy:            181.3453267

- temperature:       910.0000000
  free_energy:      -255.0184510
  entropy:           481.6923991
  heat_capacity:     197.6513697
  energy:            183.3216322

- temperature:       920.0000000
  free_energy:      -259.8461961
  entropy:           483.8527672
  heat_capacity:     197.6918975
  energy:            185.2983497

- temperature:       930.0000000
  free_energy:      -264.6954299
  entropy:           485.9902106
  heat_capacity:     197.7311426
  energy:            187.2754659

- temperature:       940.0000000
  free_energy:      -269.5659255
  entropy:           488.1052063
  heat_capacity:     197.7691582
  energy:            189.2529684

- temperature:       950.0000000
  free_energy:      -274.4574608
  entropy:           490.1982167
  heat_capacity:     197.8059950
  energy:            191.2308451

- temperature:       960.0000000
  free_energy:      -279.3698181
  entropy:           492.2696902
  heat_capacity:     197.8417011
  energy:            193.2090845

- temperature:       970.0000000
  free_energy:      -284.3027842
  entropy:           494.3200616
  heat_capacity:     197.8763221
  energy:            195.1876755

- temperature:       980.0000000
  free_energy:      -289.2561504
  entropy:           496.3497529
  heat_capacity:     197.9099015
  energy:            197.1666075

- temperature:       990.0000000
  free_energy:      -294.2297117
  entropy:           498.3591737
  heat_capacity:     197.9424805
  energy:            199.1458702

- temperature:      1000.0000000
  free_energy:      -299.2232676
  entropy:           500.3487215
  heat_capacity:     197.9740983
  energy:            201.1254539
