5
Lattice="3.827359498944036 0.022132555427122537 1.6219878069778106 1.8962083216591323 4.942545298600886 0.7500491053824456 0.02173111112631202 0.05834497254330624 5.279909978136564" Properties=species:S:1:pos:R:3:forces:R:3 structure_index=0 total_energy=-14.934185028076172 stress="-0.0005316320457495749 -0.0018715668702498078 0.017865363508462906 -0.0018716660561040044 -0.05036376789212227 -0.0054102735593914986 0.017865506932139397 -0.0054101538844406605 -0.023697569966316223" pbc="T T T"
Li       2.76050637       4.51795923       4.09522281      -0.00965156       0.01266505       0.02566534
Ga       2.05948410       0.62219961       5.85450993      -0.01088776       0.04262694      -0.01853934
Ga       3.12718647       1.50367481       3.27641371       0.02203548      -0.03302900      -0.02090613
Ga       4.33307579       2.44741129       5.76032604       0.00377620      -0.00325655      -0.00391666
Sn       1.62365165       3.49945998       1.46901358      -0.00527236      -0.01900643       0.01769677
12
Lattice="4.840129601126166 -0.002039676266671978 0.00047727024510854947 -0.001927478835596632 5.958581800494395 0.09924327289297336 0.0009371073289497523 0.15627326239351177 8.794800416619116" Properties=species:S:1:pos:R:3:forces:R:3 structure_index=1 total_energy=-37.084224700927734 stress="0.004655684810131788 -0.0007449426339007914 -0.00015684618847444654 -0.0007448651012964547 -0.004306809976696968 0.02728600613772869 -0.00015674930182285607 0.027285831049084663 -0.012945014983415604" pbc="T T T"
Li       1.34230390       0.80629888       1.72676657       0.00004790      -0.00006704       0.00167453
Li       1.34158439       3.78541218       1.77445582      -0.00020414       0.00036548       0.00026625
Li       3.76244545       0.88028306       6.12564577       0.00033882      -0.00172660      -0.00047259
Ga       1.34034838       2.30840936       4.73686144       0.00014369      -0.03368326       0.00190263
Ga       3.76180884       5.31743400       3.17695056      -0.00070955       0.01569868      -0.00887241
Ga       3.76173772       2.25365285       0.37905565       0.00056312      -0.01222079       0.00943810
Ga       3.76216403       3.85892848       6.17559746      -0.00008261       0.00089608       0.00020688
Ga       1.34307155       5.40956879       7.61289575      -0.00068464       0.03248187      -0.00213952
Sn       1.34143516       5.29127939       4.71667478       0.00092111      -0.04358222      -0.00809294
Sn       1.34287607       2.42727998       7.63301514      -0.00084817       0.04113989       0.00706183
Sn       3.76047963       2.34217687       3.24206065       0.00048596       0.01182630       0.00390281
Sn       3.76207305       5.23051286       0.31461479       0.00002853      -0.01112841      -0.00487554
10
Lattice="4.415390657310666 -0.0010419249729108693 -0.0016596385229862213 0.0009808859040495764 5.2599646684462344 -1.244040535856377 0.0019343381626149418 0.022260362819497132 6.950135595043336" Properties=species:S:1:pos:R:3:forces:R:3 structure_index=2 total_energy=-27.134170532226562 stress="0.026809316128492355 3.5460132494335994e-05 -0.0004057430778630078 3.5594301152741536e-05 0.010150371119379997 -0.0025358099956065416 -0.00040585669921711087 -0.0025357261765748262 0.02383301593363285" pbc="T T T"
Li       2.78928956       1.69489755      -0.11403297       0.00033857       0.01509152       0.04318529
Li       0.58209524       3.35854969       0.20449542       0.00038701       0.00722921       0.00433448
Li       2.79046841       2.72753772       2.36835950      -0.00032614      -0.00495510       0.01795779
Li       0.58261207       4.40730503       2.81328559       0.00121574      -0.02318394      -0.02331506
Li       0.58335049       0.25955766       6.65754510      -0.00027127       0.00148428      -0.02910598
Li       2.79028725       0.74340360       4.29153827      -0.00009019       0.00281197       0.01062300
Ga       2.79056128       4.92674226       0.67916518      -0.00004552      -0.00488716       0.00393131
Ga       0.58320905       2.08712538       4.67916216      -0.00030453       0.00596897      -0.01234608
Ga       0.58244720       1.24181900       2.13238610      -0.00058407      -0.00082204      -0.01332772
Sn       2.79146924       3.89591476       4.92640983      -0.00031960       0.00126224      -0.00193711
5
Lattice="4.464560681028634 0.0012184163384115212 0.00011390331810028534 -2.235057428113256 3.8680162971492793 -0.0022082605204334855 -0.0016616251032885074 0.002934912713143527 6.956409097522962" Properties=species:S:1:pos:R:3:forces:R:3 structure_index=3 total_energy=-15.55002212524414 stress="-0.027399776503443718 -0.0014420876977965236 0.0007944555836729705 -0.001442114938981831 -0.030616693198680878 -0.0008572366205044091 0.0007944257813505828 -0.0008571459329687059 0.06265103816986084" pbc="T T T"
Li      -0.89129275       2.88550438       0.94712526      -0.00064257      -0.00125316       0.00073804
Ga       1.34056903       1.59827489       5.26706882      -0.00050190      -0.00319177      -0.02858999
Ga       3.57336377       0.30665667       3.58591555       0.00138225       0.00345216       0.03267354
Sn       1.34108735       1.59634131       2.44360610      -0.00125339      -0.00252428       0.02202527
Sn       3.57318887       0.30875606       6.41049039       0.00101562       0.00351707      -0.02684688
12
Lattice="4.636840810450806 0.001643369639487951 0.0009769310932063212 -0.0020474825767465114 6.428482442683886 0.002998481775017005 0.0015038823038397563 0.005916988989042435 8.58805354885379" Properties=species:S:1:pos:R:3:forces:R:3 structure_index=4 total_energy=-36.81731414794922 stress="-0.014878240413963795 -9.363558638142422e-05 -0.00019484908261802047 -9.361067350255325e-05 -0.018114782869815826 0.0012344358256086707 -0.00019461964257061481 0.001234328607097268 -0.02819693833589554" pbc="T T T"
Li       0.09389435       0.69553861       2.56680492      -0.00001731       0.00402039      -0.02375266
Li       0.09154625       3.90374295       1.60601624       0.00006764       0.00953951       0.02698848
Li       2.41201408       3.92267742       6.86708518      -0.00008359      -0.00875146      -0.02672996
Li       2.41205846       0.70474647       5.90326345       0.00003610      -0.00464019       0.02395930
Ga       2.41043109       2.10887142       0.72150642      -0.00003663       0.03613069       0.01590251
Ga       0.09303437       5.71713783       7.75175385       0.00013720      -0.03479327      -0.01492865
Ga       2.41126194       5.32021144       3.45882618       0.00006758       0.03639776      -0.01610653
Ga       0.09269835       2.50929745       5.01503667       0.00009865      -0.03849656       0.01463082
Sn       2.41134621       2.52130661       3.47655984      -0.00001536      -0.02305242      -0.00401868
Sn       0.09375396       2.08737609       7.77010530       0.00010396       0.02723369      -0.00472050
Sn       0.09265338       5.30723091       4.99659277      -0.00018784       0.02466463       0.00476614
Sn       2.40974141       5.73918813       0.70338081      -0.00017038      -0.02825280       0.00400975
4
Lattice="4.364117993839777 0.00019408961355743797 -0.000603747596793216 -0.0006214737706095625 4.539530872851998 0.00018536555215393198 0.0002081752263509487 -7.631214047317973e-05 4.537299769825553" Properties=species:S:1:pos:R:3:forces:R:3 structure_index=5 total_energy=-13.07406997680664 stress="0.05678623169660568 -0.0014381719520315528 -0.0014765624655410647 -0.0014381493674591184 -0.05665245279669762 0.00041575790964998305 -0.001476621488109231 0.00041584670543670654 -0.06459856778383255" pbc="T T T"
Li       3.18059197       0.93685147       1.91955519      -0.00068974      -0.00059722       0.00163582
Ga       3.18037453       3.20608201       4.18884794      -0.00111857       0.00159249      -0.00092809
Sn       0.99811076       3.20633938       1.92001864       0.00045213       0.00170480       0.00317513
Sn       0.99787786       0.93755174       4.19032172       0.00135618      -0.00270007      -0.00388287
12
Lattice="4.239716751239958 -0.0004966049684109728 -1.4295429133044426 -0.4173742568021723 7.608318924659817 -1.2402135064934858 0.044187753330178374 -0.30716426793895596 7.1327669316853" Properties=species:S:1:pos:R:3:forces:R:3 structure_index=6 total_energy=-32.25634765625 stress="-0.0038585669826716185 0.00033279097988270223 -0.00054365792311728 0.00033293446176685393 -0.009678270667791367 0.0010402848711237311 -0.0005436970386654139 0.0010402327170595527 -0.005238003563135862" pbc="T T T"
Li       3.88234433       3.38855115       4.25540257      -0.00003645       0.00029545      -0.00031695
Li       2.79005397       0.13079339       1.01664492       0.00647883       0.02162416       0.01941197
Li       3.19291433       5.39893940       2.20999533       0.00324222      -0.02005214       0.00981984
Li       2.20990492       4.83222330      -0.70475391       0.00919726       0.01952067       0.02614313
Li       1.27090547       2.25264012       3.51200032      -0.00934153      -0.01934018      -0.02650247
Li       1.55410887       7.19369935       4.35055516      -0.00022918      -0.00022554      -0.00039256
Li       0.69104765       6.95362024       1.79157712      -0.00659299      -0.02047595      -0.02016594
Li       0.28790980       1.68650681       0.59696004      -0.00294302       0.01942398      -0.00857944
Ga       2.88901317       2.85273040       1.30930515       0.00610318       0.00265707       0.01868442
Ga       0.59176585       4.23307711       1.49804008      -0.00595972      -0.00489123      -0.01860861
Sn      -0.17330942       6.41522787      -0.77230156      -0.00565062       0.01447972      -0.01534517
Sn       3.65429586       0.66950473       3.57984280       0.00573204      -0.01301604       0.01585177
4
Lattice="4.440561455508284 0.00071582665123799 -0.0011573253992261917 -0.0005455529500425079 4.061444107253547 -0.0005367769032540596 0.0012920307517377758 0.00036070927987152555 4.061417680164227" Properties=species:S:1:pos:R:3:forces:R:3 structure_index=7 total_energy=-11.800233840942383 stress="0.05095785856246948 0.0003599662450142205 0.0008004212286323309 0.0003598522744141519 0.10882197320461273 -0.0016303308075293899 0.0008004092960618436 -0.0016302994918078184 0.10869073122739792" pbc="T T T"
Li       2.61487290       3.46799104       3.57434329      -0.00066693       0.00019579      -0.00024193
Li       2.61441839       1.43717264       1.54398404      -0.00050997      -0.00000265      -0.00060500
Ga       0.39381211       3.46769360       1.54372059       0.00007931      -0.00052480       0.00066818
Sn       0.39445551       1.43701151       3.57481717       0.00109759       0.00033166       0.00017874
10
Lattice="2.8262309382689637 0.0005201237230646249 -8.718711626059997e-05 -0.0005222175544052088 2.826230211241183 -0.00020706541732268721 0.0006845857397267882 0.0015630172409830936 21.161421587409166" Properties=species:S:1:pos:R:3:forces:R:3 structure_index=8 total_energy=-28.35552215576172 stress="0.04015830531716347 -1.4724120774189942e-05 -4.4813846216129605e-06 -1.471057203161763e-05 0.04013240709900856 -9.532380317978095e-06 -3.527015906001907e-06 -8.73958197189495e-06 -0.02044694311916828" pbc="T T T"
Li       2.75776058       1.72794829       3.36832232      -0.00001145       0.00000852      -0.02220580
Li       2.75834242       1.72928043      20.39394796      -0.00002837      -0.00003051      -0.03025135
Li       2.75786753       1.72850860      11.52341360       0.00001233       0.00000552       0.02216886
Li       2.75802309       1.72884957      15.65909645       0.00001992       0.00001031       0.03031457
Li       2.75778294       1.72820861       7.44590690       0.00001144       0.00000640      -0.00003779
Ga       1.34488478       0.31446648       1.28991696      -0.00003928      -0.00000806      -0.00357067
Ga       1.34496007       0.31497929       9.48138577       0.00001383       0.00000570       0.01634903
Ga       1.34508604       0.31529812      13.60202996       0.00000853       0.00001180       0.00363026
Ga       1.34491374       0.31469685       5.41068602       0.00000420       0.00000683      -0.01636525
Sn       1.34532047       0.31570420      18.02668408       0.00000888      -0.00001646      -0.00003187
6
Lattice="4.239002751628909 -0.03073659772510803 -0.05955080641590585 -2.1024241017120295 4.745256499129217 -1.8647745814330403 0.07359080700402398 -0.007972705459550892 6.13990946407995" Properties=species:S:1:pos:R:3:forces:R:3 structure_index=9 total_energy=-18.393524169921875 stress="-0.03130301088094711 0.006444279570132494 -0.013671820051968098 0.006444254890084267 -0.047606948763132095 -0.0036443136632442474 -0.01367195975035429 -0.0036443176213651896 -0.04363684356212616" pbc="T T T"
Li       0.59719974       0.92009424       4.16485439      -0.01109774      -0.00921415       0.02609979
Li       2.66128749       2.51121974      -0.52650145       0.00580832       0.04049658      -0.02661585
Ga       2.70592954       2.48428186       2.67630630      -0.00404795      -0.02891122      -0.00681350
Ga       0.60828328       3.93170038       4.01007324       0.00546718       0.00770894       0.01761692
Sn       0.54841865       0.90081813       1.05580077       0.00043308      -0.00186227      -0.01400496
Sn       0.57915463       4.06340472       1.02759442       0.00343711      -0.00821787       0.00371759
12
Lattice="4.534113600745948 0.0009605557230018143 0.0009815659413433605 -2.2660393373994747 3.9283199029641453 -0.0002663542457326452 -0.0027260617288705396 -0.0015601617384384285 16.17866868375711" Properties=species:S:1:pos:R:3:forces:R:3 structure_index=10 total_energy=-37.870933532714844 stress="0.003647289937362075 8.704901847522706e-05 1.6400072126998566e-05 8.70605290401727e-05 0.0037604430690407753 -2.507721001165919e-05 1.6607169527560472e-05 -2.5032941266545095e-05 0.003517779055982828" pbc="T T T"
Li       3.07244959       0.99690444      13.78848710      -0.00018114      -0.00039391       0.05140280
Li       0.80643017       2.30487994      15.71331917      -0.00043646      -0.00036277      -0.03115351
Li       3.07483904       0.99306775       3.82628927      -0.00014918       0.00029069      -0.01964375
Li       3.07423230       0.99141719       9.16377334       0.00001748       0.00056497       0.00833120
Ga       0.80577452       2.30170747       7.99950747      -0.00028597       0.00031318       0.01569126
Ga       0.80785537       2.30635464       2.23376220      -0.00026372      -0.00055390      -0.03926645
Sn      -1.46055108       3.61270526      12.07263733       0.00061164       0.00001201       0.03735779
Sn       3.07542220       0.99684198       0.95227175       0.00063534       0.00005940      -0.01831712
Sn      -1.46075970       3.61460500      15.10336929       0.00012358      -0.00014260       0.01076265
Sn       0.80717757       2.30260592      10.78832195      -0.00066868       0.00016989      -0.00005596
Sn       0.80716437       2.30191727       5.03934463      -0.00069465       0.00036471      -0.00528453
Sn      -1.46139743       3.61158466       6.76225653       0.00129179      -0.00032169      -0.00982437
6
Lattice="4.564259687106954 0.00028284353519490897 -0.00038409921595608504 -2.282187719248013 3.9527154037693983 0.00026783664617752623 0.0008775786671191752 -0.00017651237155728 7.481495859159972" Properties=species:S:1:pos:R:3:forces:R:3 structure_index=11 total_energy=-18.664554595947266 stress="-0.014407278038561344 0.0002622540632728487 -9.919128206092864e-05 0.0002623115142341703 -0.013824689202010632 -1.4198451935953926e-05 -9.923785546561703e-05 -1.4187397027853876e-05 0.0033715551253408194" pbc="T T T"
Li       1.40885323       0.08480543       7.42546709      -0.00090178       0.00088112       0.00221358
Li       1.40819064       0.08578259       3.68283849       0.00007941      -0.00097160       0.00412294
Ga       1.40739275       2.72086974       0.70306335       0.00192083      -0.00179712       0.01617874
Ga       3.69047969       1.40279811       4.44326632      -0.00100477       0.00201896       0.01873459
Sn       1.40818257       2.72054138       5.36872408       0.00076222      -0.00080857      -0.02230466
Sn       3.68993491       1.40312409       1.62730827      -0.00085591       0.00067719      -0.01894522
14
Lattice="5.353281210769366 0.0022332490134353324 -2.2778443668196324 -1.3407986877463312 6.029842724070388 -3.140077979000509 0.20343320605372353 -0.056100660260810335 7.887358581703135" Properties=species:S:1:pos:R:3:forces:R:3 structure_index=12 total_energy=-40.98529815673828 stress="-0.018850672990083694 -0.0006702227401547134 0.00035441890941001475 -0.0006701343227177858 -0.00413075927644968 -0.000683603691868484 0.0003544142236933112 -0.0006837154505774379 -0.018874142318964005" pbc="T T T"
Li       1.88240068       1.48880340       5.91720702       0.02427826       0.00066950      -0.00903903
Li       0.06979154       2.63427275       1.69632518       0.02050290      -0.01287596       0.01348347
Li       4.56607553       1.48841734       4.77740647      -0.02390088       0.00084789       0.00907478
Li       0.57150933       4.03529569      -0.86934942      -0.00711458      -0.00897893      -0.01888901
Li       2.77193421       2.63542921       0.54745249      -0.00451401      -0.01269905       0.02220001
Li       0.82160247       0.39779521       3.38918513      -0.01874068       0.01225917      -0.01436608
Li       4.33263223       5.02905342       0.53632318       0.00813918       0.00721013       0.01899258
Li       3.47341831       0.39795829       2.25937507       0.00364753       0.01346693      -0.02156082
Ga       2.40024393       3.00522334       3.42053404       0.00053150      -0.02079151       0.00277922
Ga       3.84512317       0.02876189      -0.61306446      -0.00179292       0.02017316      -0.00297018
Sn       1.63472082       5.12190414       1.62587799       0.00000465      -0.01198804       0.00243132
Sn      -0.27760624       2.84372040       4.55778287       0.00724648      -0.02330937       0.01669943
Sn       3.27027051       3.94167917      -1.95881251      -0.00141635       0.01195227      -0.00225718
Sn       1.16915338       0.18761233       0.52734513      -0.00687107       0.02406376      -0.01657849
18
Lattice="5.83326857560882 -0.020429368755972125 -2.2722464802872464 -2.7152410975910057 7.169715659937181 -2.473731591357822 -0.032156235639047244 -0.18455900134161607 8.688539170317014" Properties=species:S:1:pos:R:3:forces:R:3 structure_index=13 total_energy=-55.1822509765625 stress="0.011745704337954521 -0.0021361131221055984 -0.003825195599347353 -0.0021361929830163717 0.005264962557703257 -0.003427275689318776 -0.0038248642813414335 -0.003427129006013274 0.007143942639231682" pbc="T T T"
Li       4.06989287      -0.03178714       5.52903498       0.00114201      -0.02387939       0.01408946
Li       2.42454658       6.75245962      -2.91736693       0.00964143       0.01026313      -0.01934045
Li       0.82255830       4.58268445       1.71143762       0.00226545      -0.00198853      -0.00027306
Li       2.64904983       2.11810592       2.07812868       0.00714586       0.00149910      -0.00099532
Li      -0.75010667       2.43172425       6.18808330      -0.00566490      -0.02166669       0.00630595
Li       1.05106539      -0.00130515       6.68373300       0.01158549      -0.02385520       0.00916704
Li      -0.15342344       2.14047599       3.23780596      -0.01289757       0.01677238      -0.00073235
Li      -0.58281339       6.74156535      -1.79207780      -0.00282742       0.01877802      -0.00210001
Li      -1.52017413       4.31455127      -0.20211643       0.00716227       0.01767320       0.00118049
Ga       0.30389985       4.75357158       4.63314249      -0.03096121       0.00292540      -0.01348944
Ga       2.10398100       2.36308253       5.08393438       0.01013167       0.01207518       0.01277597
Sn       1.34866622       4.43363158      -1.32390202       0.00691891      -0.00160290       0.01807864
Sn       3.13850768       4.68417961       3.58507878      -0.00560584      -0.00573253      -0.02352132
Sn      -1.04950927       6.96000220       1.21175338       0.01048548       0.00368506       0.01776177
Sn       3.79594696       4.48289853       0.54390366      -0.02498384       0.01154099      -0.02554842
Sn       4.54039845      -0.09932406       2.57145466      -0.00107007      -0.00991826       0.02224132
Sn       0.32521334       1.99360211       0.25541381      -0.00544696      -0.00852761      -0.01488094
Sn       3.24435461       1.85674704      -0.93774217       0.02297926       0.00195869      -0.00071929
20
Lattice="6.692884466446886 -0.06237908195223278 -3.666402527127168 -3.2649814500654157 6.586206752588593 -2.056192803038934 -0.07370082193971937 0.061730402850844766 7.631251959541843" Properties=species:S:1:pos:R:3:forces:R:3 structure_index=14 total_energy=-54.51560592651367 stress="-0.01193622499704361 0.002191699342802167 -0.0004015295417048037 0.0021916243713349104 -0.006349290255457163 -0.003735444974154234 -0.0004018077743239701 -0.0037355306558310986 -0.011375050991773605" pbc="T T T"
Li       3.15828050       2.35555320      -0.87563130      -0.00062869      -0.01351709       0.00724451
Li       3.85269946       2.96605378       1.75875105      -0.00641618      -0.01080689       0.01024543
Li       1.23006989       3.68859064       2.38961073      -0.01069308      -0.00154869      -0.01109509
Li       5.17569784       0.92748395       3.34754324      -0.00598971       0.01120225      -0.00363243
Li       1.10293195       0.39164988       6.34926358       0.00830888       0.00235502      -0.01217280
Li       4.60631716       3.62714513      -3.26088953       0.01432366      -0.00025405       0.00017922
Li       0.58747461       6.24025865      -3.96358708      -0.02605699      -0.00144848      -0.01489835
Li       1.82550329       0.92877448       1.34240630       0.00693035       0.00748711       0.00188033
Li      -0.13764428       5.60915444       0.91367130      -0.00207783       0.02449687       0.00132294
Li      -0.83547656       1.68612379       2.07630182       0.00110696      -0.01746968      -0.00237767
Li      -0.19181843       2.41576358       4.79324546      -0.00503661      -0.01341137       0.00215758
Li      -2.87362867       6.30097163       1.63956251       0.02298605      -0.00052349       0.01252310
Ga       4.47940585       0.25035670       0.71054491       0.00010476      -0.01513061      -0.00150879
Ga       2.48064435       4.97140467       0.26500225       0.00572384      -0.01049396       0.00402318
Ga       3.23999010       5.56863579      -4.73038031       0.00132150       0.01943968       0.00702124
Ga      -0.80284852       4.97085534      -1.70132800      -0.00982889      -0.00599105      -0.00237556
Ga       0.55001022       3.02097697      -0.23825886       0.00982495       0.01615595      -0.01308973
Ga       1.89790074       4.32861369      -2.49105389       0.00928070      -0.02352705      -0.00587411
Sn       2.48669874       1.71625240       4.03930068      -0.00056261       0.00092996      -0.00185511
Sn      -1.48105480       4.30153441       3.15569096      -0.01262103       0.03205562       0.02228217
9
Lattice="4.288693338571224 -0.001077804107241383 -0.0039529052824173036 -2.1435176991202183 4.552864337698286 0.5917886259406546 0.0063557318519723615 1.189482630103953 8.630786930879227" Properties=species:S:1:pos:R:3:forces:R:3 structure_index=15 total_energy=-25.878503799438477 stress="0.003197616431862116 -0.0007206669542938471 -0.0014329829718917608 -0.0007206732407212257 0.020566290244460106 0.003186360700055957 -0.001433311146683991 0.0031863029580563307 0.0073304553516209126" pbc="T T T"
Li       2.71203314       3.60843784       8.20687359       0.00165250       0.02586859      -0.00745360
Li       0.56395321       4.01754092       0.72943699      -0.00009666      -0.00018564      -0.00105323
Li       2.71047083       3.16259564       5.34866095       0.00072886       0.03152524      -0.02335445
Li       0.56770984       1.50962031       4.14649986      -0.00112010      -0.03212710       0.02526802
Li       0.56554839       1.06300845       1.28883152      -0.00132521      -0.02544072       0.00849102
Ga       0.56608981       4.80688732       6.37805291       0.00158282      -0.00623103      -0.02214324
Ga       0.56842277       4.41756904       3.71055771      -0.00183338       0.00691029       0.02123667
Sn       0.56624263       1.92529700       7.02377807       0.00224279       0.02086509       0.03433998
Sn       2.71152976       2.74616231       2.47228300      -0.00183164      -0.02118471      -0.03533114
10
Lattice="3.3043317098804224 0.00024826232898301484 0.0005258999595468578 -0.000303807382132214 3.3042632632538047 -0.00023623251722721162 -0.002428263124651365 0.0008591598727266511 17.87647475221305" Properties=species:S:1:pos:R:3:forces:R:3 structure_index=16 total_energy=-30.937536239624023 stress="0.026934366673231125 -0.00020521381520666182 -0.00016241460980381817 -0.00020515298820100725 0.026247544214129448 4.4587966840481386e-05 -0.00016238937678281218 4.456006354303099e-05 -0.014950745739042759" pbc="T T T"
Li       0.70278244       1.53794615      16.23852344       0.00109464       0.00092810       0.00345308
Li       0.70488998       1.53730001       9.55628845       0.00006846       0.00057011       0.03046675
Li       0.70587925       1.53783697       5.82566336       0.00010559      -0.00002491       0.00858953
Li       0.70687203       1.53835651       2.09064628      -0.00085684      -0.00039033       0.00206771
Li       0.70434833       1.53833697      12.54304941      -0.00016674      -0.00067081      -0.04322121
Ga       2.35659974       3.18992633      11.04806828       0.00008485       0.00038476      -0.00128995
Sn       2.35799156       3.19027804       0.24416683       0.00003321      -0.00039621      -0.01323906
Sn       2.35849927       3.19031453       3.93951421      -0.00002214       0.00003879       0.01860015
Sn       2.35743195       3.18983841       7.70511770      -0.00006678      -0.00001900       0.00620542
Sn       2.35577336       3.19064285      14.37888884      -0.00027426      -0.00042049      -0.01163242
10
Lattice="3.011789649753192 -0.00022613187533298545 0.0006422206905580139 0.0005856068398498182 7.909517053611158 0.0007466463067833115 -0.0016138603414430723 -0.0006360362622461243 7.900458727191527" Properties=species:S:1:pos:R:3:forces:R:3 structure_index=17 total_energy=-28.908926010131836 stress="-0.038792259991168976 1.4147596630209591e-05 3.8038902857806534e-05 1.404093472956447e-05 -0.039524443447589874 0.0001085868789232336 3.797964018303901e-05 0.00010868835670407861 -0.04036077857017517" pbc="T T T"
Li       1.98431183       2.80118141       2.69220897      -0.00022545      -0.01854273       0.01833714
Li       1.98401499       6.75698910       3.82283283       0.00059205      -0.01954310      -0.01933169
Li       1.98338022       1.67277581       6.64371474      -0.00009058       0.01803385       0.01673867
Li       1.98356610       5.62458784       7.77112609      -0.00018522       0.02095916      -0.01912856
Ga       0.47812554       7.24114261       6.16244689      -0.00029827       0.02030189      -0.01971891
Ga       0.47866838       5.14332407       2.21125385      -0.00015685      -0.02052025      -0.02043889
Ga       0.47874294       3.28540500       0.35226129       0.00036856       0.02174013       0.02244930
Ga       0.47779003       1.18912908       4.30260298       0.00014264      -0.02083272       0.02200435
Sn       0.47854583       0.25847109       1.28215120      -0.00011034       0.00038102      -0.00132409
Sn       0.47796242       4.21550518       5.23093190      -0.00003657      -0.00197723       0.00041269
16
Lattice="4.506352967006373 0.0014664142931966476 -0.0003294872882140773 -2.2544479450725907 5.255274789594284 -0.42658752893493657 0.0005656416159102416 0.06721911593931928 15.107495704374088" Properties=species:S:1:pos:R:3:forces:R:3 structure_index=18 total_energy=-50.61271286010742 stress="0.014374169521033764 0.0005592422094196081 2.8903556085424498e-05 0.0005591294029727578 -0.005204437300562859 0.0013977885246276855 2.8779333661077544e-05 0.0013980051735416055 0.020784558728337288" pbc="T T T"
Li       3.64006121       1.02190938       1.54653456       0.00067082      -0.02815283       0.00423075
Li       1.38593377       3.17255569       0.14937073       0.00011887      -0.03206388       0.02105961
Li       1.38658396       5.22946767       4.00650055      -0.00029953      -0.00582661       0.00587354
Li      -0.86849196       4.55674464       8.96488103       0.00013695       0.00003909       0.03740592
Li       1.38655681       1.73838223      11.45746274      -0.00022519       0.03010765      -0.02400075
Ga       1.38502065       2.86852038       8.83992031       0.00030627      -0.00837319      -0.00229206
Ga       1.38407397       4.67660091      10.93534802       0.00080802       0.02148759      -0.02311626
Ga       1.38762960       0.15517536      -0.00336113      -0.00075826      -0.00457602      -0.02035943
Ga       1.38623360       4.55123613       6.79816862       0.00098744       0.01700697      -0.01787267
Sn       1.38773875       1.12618585       6.39569757      -0.00132864       0.00364517      -0.00136988
Sn       3.63874353       1.35106022       9.27269347       0.00039340       0.00905534      -0.00948374
Sn      -0.86648910       3.19452362       5.24609658       0.00000234       0.00632581      -0.00330112
Sn      -0.86705773       4.13007224       2.11917047       0.00041492      -0.00920508       0.00095606
Sn       1.38711505       2.06196367       3.22502227      -0.00093631      -0.01313380      -0.00164239