phonopy:
  version: "2.37.1"
  frequency_unit_conversion_factor: 15.633302
  symmetry_tolerance: 1.00000e-05

space_group:
  type: "P4/mmm"
  number: 123
  Hall_symbol: "-P 4 2"

primitive_matrix:
- [  1.000000000000000,  0.000000000000000,  0.000000000000000 ]
- [  0.000000000000000,  1.000000000000000,  0.000000000000000 ]
- [  0.000000000000000,  0.000000000000000,  1.000000000000000 ]

supercell_matrix:
- [   4,   0,   0 ]
- [   0,   4,   0 ]
- [   0,   0,   1 ]

primitive_cell:
  lattice:
  - [     3.232200481174887,     0.000000000000000,     0.000000000000000 ] # a
  - [    -0.000000008749942,     3.232200458621945,     0.000000000000000 ] # b
  - [    -0.000000032209460,     0.000000039590013,    10.695666040399715 ] # c
  points:
  - symbol: Li # 1
    coordinates: [  0.999999999308062,  0.999999998128933,  0.186643307190582 ]
    mass: 6.940000
  - symbol: Li # 2
    coordinates: [  0.999999998632406,  0.999999998138978,  0.813356689914113 ]
    mass: 6.940000
  - symbol: Sn # 3
    coordinates: [  0.500000000044088,  0.500000000687884,  0.365894544053096 ]
    mass: 118.710000
  - symbol: Sn # 4
    coordinates: [  0.500000000239203,  0.500000000390930,  0.634105460320793 ]
    mass: 118.710000
  - symbol: Sn # 5
    coordinates: [  0.500000001829897,  0.500000002669511,  0.999999998493346 ]
    mass: 118.710000
  reciprocal_lattice: # without 2pi
  - [     0.309386749313429,     0.000000000837546,     0.000000000931703 ] # a*
  - [     0.000000000000000,     0.309386751472200,    -0.000000001145195 ] # b*
  - [     0.000000000000000,     0.000000000000000,     0.093495813745754 ] # c*

unit_cell:
  lattice:
  - [     3.232200481174887,     0.000000000000000,     0.000000000000000 ] # a
  - [    -0.000000008749942,     3.232200458621944,     0.000000000000000 ] # b
  - [    -0.000000032209460,     0.000000039590013,    10.695666040399715 ] # c
  points:
  - symbol: Li # 1
    coordinates: [  0.999999999308062,  0.999999998128933,  0.186643307190582 ]
    mass: 6.940000
    reduced_to: 1
  - symbol: Li # 2
    coordinates: [  0.999999998632406,  0.999999998138978,  0.813356689914113 ]
    mass: 6.940000
    reduced_to: 2
  - symbol: Sn # 3
    coordinates: [  0.500000000044088,  0.500000000687884,  0.365894544053096 ]
    mass: 118.710000
    reduced_to: 3
  - symbol: Sn # 4
    coordinates: [  0.500000000239203,  0.500000000390930,  0.634105460320793 ]
    mass: 118.710000
    reduced_to: 4
  - symbol: Sn # 5
    coordinates: [  0.500000001829897,  0.500000002669511,  0.999999998493346 ]
    mass: 118.710000
    reduced_to: 5

supercell:
  lattice:
  - [    12.928801924699547,     0.000000000000000,     0.000000000000000 ] # a
  - [    -0.000000034999770,    12.928801834487775,     0.000000000000000 ] # b
  - [    -0.000000032209460,     0.000000039590013,    10.695666040399715 ] # c
  points:
  - symbol: Li # 1
    coordinates: [  0.249999999827016,  0.249999999532233,  0.186643307190582 ]
    mass: 6.940000
    reduced_to: 1
  - symbol: Li # 2
    coordinates: [  0.499999999827016,  0.249999999532233,  0.186643307190582 ]
    mass: 6.940000
    reduced_to: 1
  - symbol: Li # 3
    coordinates: [  0.749999999827016,  0.249999999532233,  0.186643307190582 ]
    mass: 6.940000
    reduced_to: 1
  - symbol: Li # 4
    coordinates: [  0.999999999827016,  0.249999999532233,  0.186643307190582 ]
    mass: 6.940000
    reduced_to: 1
  - symbol: Li # 5
    coordinates: [  0.249999999827016,  0.499999999532233,  0.186643307190582 ]
    mass: 6.940000
    reduced_to: 1
  - symbol: Li # 6
    coordinates: [  0.499999999827016,  0.499999999532233,  0.186643307190582 ]
    mass: 6.940000
    reduced_to: 1
  - symbol: Li # 7
    coordinates: [  0.749999999827016,  0.499999999532233,  0.186643307190582 ]
    mass: 6.940000
    reduced_to: 1
  - symbol: Li # 8
    coordinates: [  0.999999999827016,  0.499999999532233,  0.186643307190582 ]
    mass: 6.940000
    reduced_to: 1
  - symbol: Li # 9
    coordinates: [  0.249999999827016,  0.749999999532233,  0.186643307190582 ]
    mass: 6.940000
    reduced_to: 1
  - symbol: Li # 10
    coordinates: [  0.499999999827016,  0.749999999532233,  0.186643307190582 ]
    mass: 6.940000
    reduced_to: 1
  - symbol: Li # 11
    coordinates: [  0.749999999827016,  0.749999999532233,  0.186643307190582 ]
    mass: 6.940000
    reduced_to: 1
  - symbol: Li # 12
    coordinates: [  0.999999999827016,  0.749999999532233,  0.186643307190582 ]
    mass: 6.940000
    reduced_to: 1
  - symbol: Li # 13
    coordinates: [  0.249999999827016,  0.999999999532233,  0.186643307190582 ]
    mass: 6.940000
    reduced_to: 1
  - symbol: Li # 14
    coordinates: [  0.499999999827016,  0.999999999532233,  0.186643307190582 ]
    mass: 6.940000
    reduced_to: 1
  - symbol: Li # 15
    coordinates: [  0.749999999827016,  0.999999999532233,  0.186643307190582 ]
    mass: 6.940000
    reduced_to: 1
  - symbol: Li # 16
    coordinates: [  0.999999999827016,  0.999999999532233,  0.186643307190582 ]
    mass: 6.940000
    reduced_to: 1
  - symbol: Li # 17
    coordinates: [  0.249999999658101,  0.249999999534744,  0.813356689914113 ]
    mass: 6.940000
    reduced_to: 17
  - symbol: Li # 18
    coordinates: [  0.499999999658101,  0.249999999534744,  0.813356689914113 ]
    mass: 6.940000
    reduced_to: 17
  - symbol: Li # 19
    coordinates: [  0.749999999658101,  0.249999999534744,  0.813356689914113 ]
    mass: 6.940000
    reduced_to: 17
  - symbol: Li # 20
    coordinates: [  0.999999999658101,  0.249999999534744,  0.813356689914113 ]
    mass: 6.940000
    reduced_to: 17
  - symbol: Li # 21
    coordinates: [  0.249999999658101,  0.499999999534744,  0.813356689914113 ]
    mass: 6.940000
    reduced_to: 17
  - symbol: Li # 22
    coordinates: [  0.499999999658101,  0.499999999534744,  0.813356689914113 ]
    mass: 6.940000
    reduced_to: 17
  - symbol: Li # 23
    coordinates: [  0.749999999658101,  0.499999999534744,  0.813356689914113 ]
    mass: 6.940000
    reduced_to: 17
  - symbol: Li # 24
    coordinates: [  0.999999999658101,  0.499999999534744,  0.813356689914113 ]
    mass: 6.940000
    reduced_to: 17
  - symbol: Li # 25
    coordinates: [  0.249999999658101,  0.749999999534744,  0.813356689914113 ]
    mass: 6.940000
    reduced_to: 17
  - symbol: Li # 26
    coordinates: [  0.499999999658101,  0.749999999534744,  0.813356689914113 ]
    mass: 6.940000
    reduced_to: 17
  - symbol: Li # 27
    coordinates: [  0.749999999658101,  0.749999999534744,  0.813356689914113 ]
    mass: 6.940000
    reduced_to: 17
  - symbol: Li # 28
    coordinates: [  0.999999999658101,  0.749999999534744,  0.813356689914113 ]
    mass: 6.940000
    reduced_to: 17
  - symbol: Li # 29
    coordinates: [  0.249999999658101,  0.999999999534744,  0.813356689914113 ]
    mass: 6.940000
    reduced_to: 17
  - symbol: Li # 30
    coordinates: [  0.499999999658101,  0.999999999534744,  0.813356689914113 ]
    mass: 6.940000
    reduced_to: 17
  - symbol: Li # 31
    coordinates: [  0.749999999658101,  0.999999999534744,  0.813356689914113 ]
    mass: 6.940000
    reduced_to: 17
  - symbol: Li # 32
    coordinates: [  0.999999999658101,  0.999999999534744,  0.813356689914113 ]
    mass: 6.940000
    reduced_to: 17
  - symbol: Sn # 33
    coordinates: [  0.125000000011022,  0.125000000171971,  0.365894544053096 ]
    mass: 118.710000
    reduced_to: 33
  - symbol: Sn # 34
    coordinates: [  0.375000000011022,  0.125000000171971,  0.365894544053096 ]
    mass: 118.710000
    reduced_to: 33
  - symbol: Sn # 35
    coordinates: [  0.625000000011022,  0.125000000171971,  0.365894544053096 ]
    mass: 118.710000
    reduced_to: 33
  - symbol: Sn # 36
    coordinates: [  0.875000000011022,  0.125000000171971,  0.365894544053096 ]
    mass: 118.710000
    reduced_to: 33
  - symbol: Sn # 37
    coordinates: [  0.125000000011022,  0.375000000171971,  0.365894544053096 ]
    mass: 118.710000
    reduced_to: 33
  - symbol: Sn # 38
    coordinates: [  0.375000000011022,  0.375000000171971,  0.365894544053096 ]
    mass: 118.710000
    reduced_to: 33
  - symbol: Sn # 39
    coordinates: [  0.625000000011022,  0.375000000171971,  0.365894544053096 ]
    mass: 118.710000
    reduced_to: 33
  - symbol: Sn # 40
    coordinates: [  0.875000000011022,  0.375000000171971,  0.365894544053096 ]
    mass: 118.710000
    reduced_to: 33
  - symbol: Sn # 41
    coordinates: [  0.125000000011022,  0.625000000171971,  0.365894544053096 ]
    mass: 118.710000
    reduced_to: 33
  - symbol: Sn # 42
    coordinates: [  0.375000000011022,  0.625000000171971,  0.365894544053096 ]
    mass: 118.710000
    reduced_to: 33
  - symbol: Sn # 43
    coordinates: [  0.625000000011022,  0.625000000171971,  0.365894544053096 ]
    mass: 118.710000
    reduced_to: 33
  - symbol: Sn # 44
    coordinates: [  0.875000000011022,  0.625000000171971,  0.365894544053096 ]
    mass: 118.710000
    reduced_to: 33
  - symbol: Sn # 45
    coordinates: [  0.125000000011022,  0.875000000171971,  0.365894544053096 ]
    mass: 118.710000
    reduced_to: 33
  - symbol: Sn # 46
    coordinates: [  0.375000000011022,  0.875000000171971,  0.365894544053096 ]
    mass: 118.710000
    reduced_to: 33
  - symbol: Sn # 47
    coordinates: [  0.625000000011022,  0.875000000171971,  0.365894544053096 ]
    mass: 118.710000
    reduced_to: 33
  - symbol: Sn # 48
    coordinates: [  0.875000000011022,  0.875000000171971,  0.365894544053096 ]
    mass: 118.710000
    reduced_to: 33
  - symbol: Sn # 49
    coordinates: [  0.125000000059801,  0.125000000097733,  0.634105460320793 ]
    mass: 118.710000
    reduced_to: 49
  - symbol: Sn # 50
    coordinates: [  0.375000000059801,  0.125000000097733,  0.634105460320793 ]
    mass: 118.710000
    reduced_to: 49
  - symbol: Sn # 51
    coordinates: [  0.625000000059801,  0.125000000097733,  0.634105460320793 ]
    mass: 118.710000
    reduced_to: 49
  - symbol: Sn # 52
    coordinates: [  0.875000000059801,  0.125000000097733,  0.634105460320793 ]
    mass: 118.710000
    reduced_to: 49
  - symbol: Sn # 53
    coordinates: [  0.125000000059801,  0.375000000097732,  0.634105460320793 ]
    mass: 118.710000
    reduced_to: 49
  - symbol: Sn # 54
    coordinates: [  0.375000000059801,  0.375000000097732,  0.634105460320793 ]
    mass: 118.710000
    reduced_to: 49
  - symbol: Sn # 55
    coordinates: [  0.625000000059801,  0.375000000097732,  0.634105460320793 ]
    mass: 118.710000
    reduced_to: 49
  - symbol: Sn # 56
    coordinates: [  0.875000000059801,  0.375000000097732,  0.634105460320793 ]
    mass: 118.710000
    reduced_to: 49
  - symbol: Sn # 57
    coordinates: [  0.125000000059801,  0.625000000097732,  0.634105460320793 ]
    mass: 118.710000
    reduced_to: 49
  - symbol: Sn # 58
    coordinates: [  0.375000000059801,  0.625000000097732,  0.634105460320793 ]
    mass: 118.710000
    reduced_to: 49
  - symbol: Sn # 59
    coordinates: [  0.625000000059801,  0.625000000097732,  0.634105460320793 ]
    mass: 118.710000
    reduced_to: 49
  - symbol: Sn # 60
    coordinates: [  0.875000000059801,  0.625000000097732,  0.634105460320793 ]
    mass: 118.710000
    reduced_to: 49
  - symbol: Sn # 61
    coordinates: [  0.125000000059801,  0.875000000097732,  0.634105460320793 ]
    mass: 118.710000
    reduced_to: 49
  - symbol: Sn # 62
    coordinates: [  0.375000000059801,  0.875000000097732,  0.634105460320793 ]
    mass: 118.710000
    reduced_to: 49
  - symbol: Sn # 63
    coordinates: [  0.625000000059801,  0.875000000097732,  0.634105460320793 ]
    mass: 118.710000
    reduced_to: 49
  - symbol: Sn # 64
    coordinates: [  0.875000000059801,  0.875000000097732,  0.634105460320793 ]
    mass: 118.710000
    reduced_to: 49
  - symbol: Sn # 65
    coordinates: [  0.125000000457474,  0.125000000667378,  0.999999998493346 ]
    mass: 118.710000
    reduced_to: 65
  - symbol: Sn # 66
    coordinates: [  0.375000000457474,  0.125000000667378,  0.999999998493346 ]
    mass: 118.710000
    reduced_to: 65
  - symbol: Sn # 67
    coordinates: [  0.625000000457474,  0.125000000667378,  0.999999998493346 ]
    mass: 118.710000
    reduced_to: 65
  - symbol: Sn # 68
    coordinates: [  0.875000000457474,  0.125000000667378,  0.999999998493346 ]
    mass: 118.710000
    reduced_to: 65
  - symbol: Sn # 69
    coordinates: [  0.125000000457474,  0.375000000667378,  0.999999998493346 ]
    mass: 118.710000
    reduced_to: 65
  - symbol: Sn # 70
    coordinates: [  0.375000000457474,  0.375000000667378,  0.999999998493346 ]
    mass: 118.710000
    reduced_to: 65
  - symbol: Sn # 71
    coordinates: [  0.625000000457474,  0.375000000667378,  0.999999998493346 ]
    mass: 118.710000
    reduced_to: 65
  - symbol: Sn # 72
    coordinates: [  0.875000000457474,  0.375000000667378,  0.999999998493346 ]
    mass: 118.710000
    reduced_to: 65
  - symbol: Sn # 73
    coordinates: [  0.125000000457474,  0.625000000667378,  0.999999998493346 ]
    mass: 118.710000
    reduced_to: 65
  - symbol: Sn # 74
    coordinates: [  0.375000000457474,  0.625000000667378,  0.999999998493346 ]
    mass: 118.710000
    reduced_to: 65
  - symbol: Sn # 75
    coordinates: [  0.625000000457474,  0.625000000667378,  0.999999998493346 ]
    mass: 118.710000
    reduced_to: 65
  - symbol: Sn # 76
    coordinates: [  0.875000000457474,  0.625000000667378,  0.999999998493346 ]
    mass: 118.710000
    reduced_to: 65
  - symbol: Sn # 77
    coordinates: [  0.125000000457474,  0.875000000667378,  0.999999998493346 ]
    mass: 118.710000
    reduced_to: 65
  - symbol: Sn # 78
    coordinates: [  0.375000000457474,  0.875000000667378,  0.999999998493346 ]
    mass: 118.710000
    reduced_to: 65
  - symbol: Sn # 79
    coordinates: [  0.625000000457474,  0.875000000667378,  0.999999998493346 ]
    mass: 118.710000
    reduced_to: 65
  - symbol: Sn # 80
    coordinates: [  0.875000000457474,  0.875000000667378,  0.999999998493346 ]
    mass: 118.710000
    reduced_to: 65

displacements:
- atom:    1
  displacement:
    [   0.0077051233715498,  0.0000000000235943,  0.0063742508445462 ]
  forces:
  - [  -0.0122758708894253,  0.0000003649765858, -0.0277838706970215 ]
  - [   0.0006827954202890,  0.0000000577347237, -0.0120662301778793 ]
  - [  -0.0004837927408516,  0.0000002068554750, -0.0124962478876114 ]
  - [   0.0013148421421647,  0.0000008041970432, -0.0128648430109024 ]
  - [  -0.0005220889579505, -0.0003263037651777, -0.0124668553471565 ]
  - [   0.0004366692155600,  0.0003283242695034, -0.0127427801489830 ]
  - [   0.0000224714167416,  0.0000159698538482, -0.0124660879373550 ]
  - [   0.0003115904983133, -0.0002056611701846, -0.0125931650400162 ]
  - [  -0.0000836825638544,  0.0000007273629308, -0.0124958828091621 ]
  - [   0.0000560996122658, -0.0000003124587238, -0.0124843344092369 ]
  - [  -0.0000028521753848,  0.0000008973293006, -0.0124412328004837 ]
  - [   0.0000243236427195,  0.0000011492520571, -0.0124464333057404 ]
  - [  -0.0005227965302765,  0.0003278636140749, -0.0124652758240700 ]
  - [   0.0004359069280326, -0.0003266079584137, -0.0127415731549263 ]
  - [   0.0000226888805628, -0.0000155319430633, -0.0124655663967133 ]
  - [   0.0003110881953035,  0.0002060779370368, -0.0125928074121475 ]
  - [  -0.0002898595412262,  0.0000009046344758,  0.0122929140925407 ]
  - [   0.0000740932300687,  0.0000008681890904,  0.0124481692910194 ]
  - [  -0.0000534998252988,  0.0000007298076525,  0.0124504640698433 ]
  - [  -0.0000678372744005,  0.0000004894100130,  0.0122800171375275 ]
  - [   0.0003437535488047,  0.0000679371878505,  0.0123673155903816 ]
  - [   0.0000412585213780, -0.0000148951075971,  0.0124743431806564 ]
  - [  -0.0000143358483911, -0.0000123209320009,  0.0124512538313866 ]
  - [  -0.0005464002606459,  0.0006017545238137,  0.0117679312825203 ]
  - [   0.0000085900683189, -0.0000004568137228,  0.0124496296048164 ]
  - [  -0.0000033038668334, -0.0000000819563866,  0.0124356374144554 ]
  - [  -0.0000240355730057, -0.0000007450580597,  0.0124564692378044 ]
  - [   0.0000200359208975, -0.0000007846392691,  0.0124650076031685 ]
  - [   0.0003442219458520, -0.0000683728576405,  0.0123668909072876 ]
  - [   0.0000420762225986,  0.0000149749103002,  0.0124748349189758 ]
  - [  -0.0000134031288326,  0.0000127778912429,  0.0124510303139687 ]
  - [  -0.0005461512482725, -0.0006013582460582,  0.0117670372128487 ]
  - [  -0.0000176015601028, -0.0001289682404604, -0.0115139242261648 ]
  - [   0.0033624202478677, -0.0032624243758619, -0.0068759582936764 ]
  - [  -0.0001078508212231, -0.0000039221931729, -0.0122784879058599 ]
  - [  -0.0001228110631928,  0.0000440821349912, -0.0124253779649734 ]
  - [  -0.0000176166358870,  0.0001285227481276, -0.0115132071077824 ]
  - [   0.0033620190806687,  0.0032620644196868, -0.0068780481815338 ]
  - [  -0.0001084122486645,  0.0000038161902012, -0.0122775416821241 ]
  - [  -0.0001226817257702, -0.0000444253419118, -0.0124250017106533 ]
  - [  -0.0000379173798137, -0.0001387236843584, -0.0123031008988619 ]
  - [  -0.0000804444571259,  0.0001511526061222, -0.0124062113463879 ]
  - [   0.0000705882994225,  0.0000651718219160, -0.0122341159731150 ]
  - [  -0.0000201753136935,  0.0000246153122134, -0.0122566595673561 ]
  - [  -0.0000384409031540,  0.0001384380302625, -0.0123075693845749 ]
  - [  -0.0000797119719209, -0.0001516272313893, -0.0124068576842546 ]
  - [   0.0000705328930053, -0.0000657300770399, -0.0122349262237549 ]
  - [  -0.0000198522575374, -0.0000252200497926, -0.0122596397995949 ]
  - [  -0.0000644366227789, -0.0000773166902945,  0.0119723845273256 ]
  - [   0.0001035692985170, -0.0000914534466574,  0.0109139773994684 ]
  - [   0.0000005255417364,  0.0000034019265058,  0.0123633146286011 ]
  - [   0.0000032210691643, -0.0000211416063394,  0.0123406387865543 ]
  - [  -0.0000643317180220,  0.0000771722770878,  0.0119747295975685 ]
  - [   0.0001041319410433,  0.0000908133515622,  0.0109174661338329 ]
  - [   0.0000002132674126, -0.0000039038313844,  0.0123634524643421 ]
  - [   0.0000041422217691,  0.0000209262416320,  0.0123405382037163 ]
  - [  -0.0000094864672064, -0.0000138614541356,  0.0122710335999727 ]
  - [   0.0000062398685259,  0.0000113110036182,  0.0124376248568296 ]
  - [  -0.0000060874931478, -0.0000031764650430,  0.0122205205261707 ]
  - [   0.0000093730905064, -0.0000119705346151,  0.0122589003294706 ]
  - [  -0.0000092565478553,  0.0000142935678014,  0.0122724939137697 ]
  - [   0.0000061210143940, -0.0000107708237920,  0.0124369543045759 ]
  - [  -0.0000062350609369,  0.0000036923875086,  0.0122193060815334 ]
  - [   0.0000082452197603,  0.0000118239549920,  0.0122616384178400 ]
  - [   0.0031781145371497,  0.0031002573668957,  0.0044565470889211 ]
  - [  -0.0005974896484986,  0.0006680890219286,  0.0003207090776414 ]
  - [   0.0000602274667472, -0.0000387277978007, -0.0000793248182163 ]
  - [  -0.0002046706358669,  0.0000050207599998,  0.0000076076830737 ]
  - [   0.0031786058098078, -0.0031022531911731,  0.0044576185755432 ]
  - [  -0.0005986677133478, -0.0006697673816234,  0.0003213834716007 ]
  - [   0.0000614465825493,  0.0000386757019442, -0.0000805712770671 ]
  - [  -0.0002056806988548, -0.0000061402242864,  0.0000077877775766 ]
  - [  -0.0000705920101609,  0.0002337448677281, -0.0000780520495027 ]
  - [  -0.0000369859917555,  0.0000289246090688,  0.0000105499639176 ]
  - [  -0.0000076509750215, -0.0000179214694072,  0.0000016913982108 ]
  - [   0.0000687804422341, -0.0000605182722211, -0.0000185791286640 ]
  - [  -0.0000692973844707, -0.0002335846074857, -0.0000776550732553 ]
  - [  -0.0000381867721444, -0.0000290912139462,  0.0000105169601738 ]
  - [  -0.0000086557120085,  0.0000157858012244,  0.0000018433202058 ]
  - [   0.0000701253302395,  0.0000613842275925, -0.0000162213691510 ]
- atom:    1
  displacement:
    [  -0.0077051233715498, -0.0000000000235943, -0.0063742508445462 ]
  forces:
  - [   0.0122834183275700,  0.0000004321191227,  0.0028540119528770 ]
  - [  -0.0006706318818033,  0.0000000256040948, -0.0128501132130623 ]
  - [   0.0004811980761588,  0.0000001895969035, -0.0124323815107346 ]
  - [  -0.0013439833419397,  0.0000005131587386, -0.0120709016919136 ]
  - [   0.0005241296021268,  0.0003263009712100, -0.0124618634581566 ]
  - [  -0.0004273955710232, -0.0003225384280086, -0.0121955499053001 ]
  - [  -0.0000235005281866, -0.0000152168795466, -0.0124625861644745 ]
  - [  -0.0003144858055748,  0.0002071741037071, -0.0123332738876343 ]
  - [   0.0000828375777928,  0.0000007702037692, -0.0124320760369301 ]
  - [  -0.0000550872646272, -0.0000002961605787, -0.0124428570270538 ]
  - [   0.0000006910413504,  0.0000008991919458, -0.0124872326850891 ]
  - [  -0.0000240636290982,  0.0000012144446373, -0.0124809890985489 ]
  - [   0.0005236044526100, -0.0003248322464060, -0.0124603360891342 ]
  - [  -0.0004284144379199,  0.0003241095982958, -0.0121942237019539 ]
  - [  -0.0000231927260756,  0.0000156839087140, -0.0124619528651237 ]
  - [  -0.0003151898563374, -0.0002066995948553, -0.0123330801725388 ]
  - [   0.0002933358191513,  0.0000009113718988,  0.0126475766301155 ]
  - [  -0.0000716862268746,  0.0000007941853255,  0.0124814063310623 ]
  - [   0.0000521708279848,  0.0000007055641618,  0.0124817118048668 ]
  - [   0.0000584721419727,  0.0000006090849638,  0.0126422122120857 ]
  - [  -0.0003464778710622, -0.0000682920217514,  0.0125648528337479 ]
  - [  -0.0000385576859117,  0.0000168499536812,  0.0124525055289268 ]
  - [   0.0000132014974952,  0.0000116638839245,  0.0124797374010086 ]
  - [   0.0005541533464566, -0.0006104391068220,  0.0131733268499374 ]
  - [  -0.0000084499188233, -0.0000004121102393,  0.0124807879328728 ]
  - [   0.0000041979365051, -0.0000000162981451,  0.0124932304024696 ]
  - [   0.0000261203385890, -0.0000007259659469,  0.0124737545847893 ]
  - [  -0.0000205456890399, -0.0000007604248822,  0.0124647021293640 ]
  - [  -0.0003460217267275,  0.0000677375937812,  0.0125643387436867 ]
  - [  -0.0000378363765776, -0.0000169061822817,  0.0124532431364059 ]
  - [   0.0000142734497786, -0.0000114528666018,  0.0124793425202370 ]
  - [   0.0005544579471461,  0.0006105853244662,  0.0131721645593643 ]
  - [   0.0000504269846715,  0.0001532893365948, -0.0130053367465734 ]
  - [  -0.0032876613549888,  0.0031746146269143, -0.0174904763698578 ]
  - [   0.0001052781226463,  0.0000005368285656, -0.0122139118611813 ]
  - [   0.0001178473830805, -0.0000450141124020, -0.0120609980076551 ]
  - [   0.0000507336953888, -0.0001533025642857, -0.0130038615316153 ]
  - [  -0.0032878159545362, -0.0031749475747347, -0.0174914561212063 ]
  - [   0.0001054249441950, -0.0000004775213256, -0.0122129470109940 ]
  - [   0.0001169772804133,  0.0000443010612798, -0.0120606161653996 ]
  - [   0.0000382774778700,  0.0001357443979941, -0.0121884122490883 ]
  - [   0.0000794821535237, -0.0001497636112617, -0.0120933260768652 ]
  - [  -0.0000708863590262, -0.0000666804698994, -0.0122619103640318 ]
  - [   0.0000204094067158, -0.0000255833983829, -0.0122336912900209 ]
  - [   0.0000371915557480, -0.0001365475181956, -0.0121916607022285 ]
  - [   0.0000804326846264,  0.0001494836178608, -0.0120933428406715 ]
  - [  -0.0000704148696968,  0.0000659125507809, -0.0122631043195724 ]
  - [   0.0000208992823900,  0.0000251657402259, -0.0122357271611691 ]
  - [   0.0000655032345094,  0.0000780452974141,  0.0125203020870686 ]
  - [  -0.0000970127075561,  0.0000838327323436,  0.0135666467249393 ]
  - [  -0.0000009797387293, -0.0000047331800488,  0.0121318325400352 ]
  - [  -0.0000049172213039,  0.0000210750185943,  0.0121474564075470 ]
  - [   0.0000659792567603, -0.0000785926167737,  0.0125220045447350 ]
  - [  -0.0000970612454694, -0.0000841495420900,  0.0135695002973080 ]
  - [  -0.0000008067537465,  0.0000038946041059,  0.0121319256722927 ]
  - [  -0.0000044287944547, -0.0000211746646528,  0.0121469385921955 ]
  - [   0.0000106603220047,  0.0000163740296557,  0.0122207179665565 ]
  - [  -0.0000075510829447, -0.0000118771322377,  0.0120634101331234 ]
  - [   0.0000055898581195,  0.0000033435217119,  0.0122772641479969 ]
  - [  -0.0000088738070190,  0.0000128375986606,  0.0122316703200340 ]
  - [   0.0000109948996396, -0.0000154169956659,  0.0122228283435106 ]
  - [  -0.0000075295429269,  0.0000119568740047,  0.0120625868439674 ]
  - [   0.0000054549773267, -0.0000024137957553,  0.0122762694954872 ]
  - [  -0.0000100092693174, -0.0000128742813104,  0.0122342314571142 ]
  - [  -0.0032771814148873, -0.0032169225160033, -0.0045915283262730 ]
  - [   0.0005815334152430, -0.0006499388837256, -0.0002934689400718 ]
  - [  -0.0000598177721258,  0.0000395208480768,  0.0000753408530727 ]
  - [   0.0002078844408970, -0.0000084149651229, -0.0000133271678351 ]
  - [  -0.0032775122672319,  0.0032156703528017, -0.0045916545204818 ]
  - [   0.0005806417902932,  0.0006486678030342, -0.0002924721920863 ]
  - [  -0.0000588641560171, -0.0000390102504753,  0.0000740367686376 ]
  - [   0.0002072735514957,  0.0000076060823631, -0.0000128833344206 ]
  - [   0.0000699849770172, -0.0002400905505056,  0.0000788957113400 ]
  - [   0.0000389608321711, -0.0000310942996293, -0.0000111301196739 ]
  - [   0.0000053892290452,  0.0000120251788758, -0.0000016292324290 ]
  - [  -0.0000676886411384,  0.0000589364208281,  0.0000151293934323 ]
  - [   0.0000710790045559,  0.0002394827461103,  0.0000771444174461 ]
  - [   0.0000377730175387,  0.0000305838912027, -0.0000116050941870 ]
  - [   0.0000045471824706, -0.0000142245698953, -0.0000018485006876 ]
  - [  -0.0000663716346025, -0.0000582454376854,  0.0000167178804986 ]
- atom:   33
  displacement:
    [   0.0077051233715498,  0.0000000000235943,  0.0063742508445462 ]
  forces:
  - [  -0.0002501052804291, -0.0003477894933894, -0.0114613175392151 ]
  - [  -0.0001784609630704,  0.0001868108811323, -0.0125807598233223 ]
  - [  -0.0000504124909639, -0.0001042406220222, -0.0125605836510658 ]
  - [   0.0034908177331090, -0.0033701341599226, -0.0074739158153534 ]
  - [  -0.0000186540455616, -0.0000362498685718, -0.0125467851758003 ]
  - [   0.0000155642628670,  0.0000107046216726, -0.0125184804201126 ]
  - [   0.0000350694172084, -0.0000304733403027, -0.0124078243970871 ]
  - [  -0.0000996583548840, -0.0000846269540489, -0.0125974193215370 ]
  - [  -0.0000191325380001,  0.0000388203188777, -0.0125456526875496 ]
  - [   0.0000154636800289, -0.0000096601434052, -0.0125173777341843 ]
  - [   0.0000346959568560,  0.0000321241095662, -0.0124079734086990 ]
  - [  -0.0000996291346382,  0.0000861026346684, -0.0125968232750893 ]
  - [  -0.0002501797862351,  0.0003486071946099, -0.0114609599113464 ]
  - [  -0.0001789676025510, -0.0001866773236543, -0.0125800818204880 ]
  - [  -0.0000496874563396,  0.0001042848161887, -0.0125603303313255 ]
  - [   0.0034910608083010,  0.0033709239214659, -0.0074733942747116 ]
  - [  -0.0004186029545963, -0.0004290140932426,  0.0117706730961800 ]
  - [   0.0000112620182335,  0.0000820884015411,  0.0125702843070030 ]
  - [  -0.0000061118043959,  0.0000540424807696,  0.0125729441642761 ]
  - [   0.0004540811642073, -0.0004405342042446,  0.0115664526820183 ]
  - [   0.0000655244512018, -0.0000050924718380,  0.0125826597213745 ]
  - [  -0.0000157402828336, -0.0000131619162858,  0.0124480575323105 ]
  - [   0.0000183866359293, -0.0000223536044359,  0.0124671161174774 ]
  - [  -0.0000686870844220,  0.0000203987583518,  0.0125613212585449 ]
  - [   0.0000657180935377,  0.0000041895546019,  0.0125814527273178 ]
  - [  -0.0000154371373355,  0.0000129658728838,  0.0124476626515388 ]
  - [   0.0000199661590159,  0.0000211824662983,  0.0124668926000595 ]
  - [  -0.0000688750442350, -0.0000213827006519,  0.0125606879591942 ]
  - [  -0.0004188437014818,  0.0004298344429117,  0.0117694064974785 ]
  - [   0.0000123009085655, -0.0000810069323052,  0.0125696435570717 ]
  - [  -0.0000049429945648, -0.0000525088107679,  0.0125722289085388 ]
  - [   0.0004541978996713,  0.0004415074363351,  0.0115650892257690 ]
  - [  -0.0137755721807480,  0.0000001960690525, -0.0473903268575668 ]
  - [   0.0010990970768034, -0.0000000095711528, -0.0112837590277195 ]
  - [   0.0039963880553842, -0.0000000701494969, -0.0121072400361300 ]
  - [   0.0016642138361931, -0.0000004054630267, -0.0121752899140120 ]
  - [   0.0000804277951829, -0.0003958056331612, -0.0117255486547947 ]
  - [   0.0000955394061748,  0.0003043945762329, -0.0119002256542444 ]
  - [  -0.0003191497235093,  0.0000793076396803, -0.0122293662279844 ]
  - [   0.0005142152076587, -0.0007283122977242, -0.0124177243560553 ]
  - [   0.0000593326949456, -0.0000003084904847, -0.0121047291904688 ]
  - [   0.0000706409118720, -0.0000002899577112, -0.0123252458870411 ]
  - [   0.0000380892488465, -0.0000013247018842, -0.0122502446174622 ]
  - [  -0.0000849727221066, -0.0000003090677865, -0.0121337026357651 ]
  - [   0.0000803826260380,  0.0003950054524466, -0.0117320399731398 ]
  - [   0.0000960865800153, -0.0003046552883461, -0.0119046606123447 ]
  - [  -0.0003206440887880, -0.0000785867086961, -0.0122322607785463 ]
  - [   0.0005152672529221,  0.0007279381388798, -0.0124211274087429 ]
  - [  -0.0008276501321234,  0.0000001744152058,  0.0388528779149055 ]
  - [   0.0011845862027258, -0.0000004260577384,  0.0122296586632729 ]
  - [  -0.0000270555392490, -0.0000000776742297,  0.0123923383653164 ]
  - [   0.0002312520809937,  0.0000002793927933,  0.0110737513750792 ]
  - [  -0.0000281807188003,  0.0004718618001789,  0.0116515848785639 ]
  - [  -0.0001812521513784, -0.0002137878909707,  0.0121763050556183 ]
  - [  -0.0000152834800247,  0.0000022046251615,  0.0122333392500877 ]
  - [   0.0001676094543654, -0.0001349749218207,  0.0125972088426352 ]
  - [  -0.0000371391215594,  0.0000008549540098,  0.0123867914080620 ]
  - [   0.0000025829822334, -0.0000001469300059,  0.0122389551252127 ]
  - [   0.0000378343866032,  0.0000002094326419,  0.0122414156794548 ]
  - [  -0.0000031318318179,  0.0000006943062090,  0.0122274719178677 ]