phonopy:
  version: "2.37.1"
  frequency_unit_conversion_factor: 15.633302
  symmetry_tolerance: 1.00000e-05

space_group:
  type: "Pmm2"
  number: 25
  Hall_symbol: "P 2 -2"

primitive_matrix:
- [ -1.000000000000000,  0.000000000000000,  0.000000000000000 ]
- [  0.000000000000000,  0.000000000000000, -1.000000000000000 ]
- [  0.000000000000000, -1.000000000000000,  0.000000000000000 ]

supercell_matrix:
- [   3,   0,   0 ]
- [   0,   3,   0 ]
- [   0,   0,   3 ]

primitive_cell:
  lattice:
  - [    -4.197041693822278,     0.000000000000000,     0.000000000000000 ] # a
  - [     0.000000318828182,    -0.000000410805254,    -4.205321890693504 ] # b
  - [     0.000000273451416,    -4.205504340678780,     0.000000000000000 ] # c
  points:
  - symbol: Li # 1
    coordinates: [  0.000000003341732,  0.999999977733610,  0.083289747929443 ]
    mass: 6.940000
  - symbol: Li # 2
    coordinates: [  0.500000008104429,  0.000000022188590,  0.583023559822644 ]
    mass: 6.940000
  - symbol: Li # 3
    coordinates: [  0.499999896845949,  0.499999994848382,  0.083497342642548 ]
    mass: 6.940000
  - symbol: Sn # 4
    coordinates: [  0.000000091669667,  0.500000004882638,  0.583522683664526 ]
    mass: 118.710000
  reciprocal_lattice: # without 2pi
  - [    -0.238263060734403,    -0.000000015492404,    -0.000000018064009 ] # a*
  - [    -0.000000000000000,    -0.000000000000000,    -0.237793925409855 ] # b*
  - [    -0.000000000000000,    -0.237783609049515,     0.000000023228366 ] # c*

unit_cell:
  lattice:
  - [     4.197041693822278,     0.000000000000000,     0.000000000000000 ] # a
  - [    -0.000000273451416,     4.205504340678781,     0.000000000000000 ] # b
  - [    -0.000000318828182,     0.000000410805254,     4.205321890693504 ] # c
  points:
  - symbol: Li # 1
    coordinates: [  0.999999996658268,  0.916710252070556,  0.000000022266390 ]
    mass: 6.940000
    reduced_to: 1
  - symbol: Li # 2
    coordinates: [  0.499999991895571,  0.416976440177356,  0.999999977811410 ]
    mass: 6.940000
    reduced_to: 2
  - symbol: Li # 3
    coordinates: [  0.500000103154051,  0.916502657357451,  0.500000005151618 ]
    mass: 6.940000
    reduced_to: 3
  - symbol: Sn # 4
    coordinates: [  0.999999908330333,  0.416477316335474,  0.499999995117362 ]
    mass: 118.710000
    reduced_to: 4

supercell:
  lattice:
  - [    12.591125081466835,     0.000000000000000,     0.000000000000000 ] # a
  - [    -0.000000820354248,    12.616513022036342,     0.000000000000000 ] # b
  - [    -0.000000956484547,     0.000001232415761,    12.615965672080513 ] # c
  points:
  - symbol: Li # 1
    coordinates: [  0.333333332219423,  0.305570084023519,  0.000000007422130 ]
    mass: 6.940000
    reduced_to: 1
  - symbol: Li # 2
    coordinates: [  0.666666665552756,  0.305570084023519,  0.000000007422130 ]
    mass: 6.940000
    reduced_to: 1
  - symbol: Li # 3
    coordinates: [  0.999999998886089,  0.305570084023519,  0.000000007422130 ]
    mass: 6.940000
    reduced_to: 1
  - symbol: Li # 4
    coordinates: [  0.333333332219423,  0.638903417356852,  0.000000007422130 ]
    mass: 6.940000
    reduced_to: 1
  - symbol: Li # 5
    coordinates: [  0.666666665552756,  0.638903417356852,  0.000000007422130 ]
    mass: 6.940000
    reduced_to: 1
  - symbol: Li # 6
    coordinates: [  0.999999998886089,  0.638903417356852,  0.000000007422130 ]
    mass: 6.940000
    reduced_to: 1
  - symbol: Li # 7
    coordinates: [  0.333333332219423,  0.972236750690185,  0.000000007422130 ]
    mass: 6.940000
    reduced_to: 1
  - symbol: Li # 8
    coordinates: [  0.666666665552756,  0.972236750690185,  0.000000007422130 ]
    mass: 6.940000
    reduced_to: 1
  - symbol: Li # 9
    coordinates: [  0.999999998886089,  0.972236750690185,  0.000000007422130 ]
    mass: 6.940000
    reduced_to: 1
  - symbol: Li # 10
    coordinates: [  0.333333332219423,  0.305570084023519,  0.333333340755463 ]
    mass: 6.940000
    reduced_to: 1
  - symbol: Li # 11
    coordinates: [  0.666666665552756,  0.305570084023519,  0.333333340755463 ]
    mass: 6.940000
    reduced_to: 1
  - symbol: Li # 12
    coordinates: [  0.999999998886089,  0.305570084023519,  0.333333340755463 ]
    mass: 6.940000
    reduced_to: 1
  - symbol: Li # 13
    coordinates: [  0.333333332219423,  0.638903417356852,  0.333333340755463 ]
    mass: 6.940000
    reduced_to: 1
  - symbol: Li # 14
    coordinates: [  0.666666665552756,  0.638903417356852,  0.333333340755463 ]
    mass: 6.940000
    reduced_to: 1
  - symbol: Li # 15
    coordinates: [  0.999999998886089,  0.638903417356852,  0.333333340755463 ]
    mass: 6.940000
    reduced_to: 1
  - symbol: Li # 16
    coordinates: [  0.333333332219423,  0.972236750690185,  0.333333340755463 ]
    mass: 6.940000
    reduced_to: 1
  - symbol: Li # 17
    coordinates: [  0.666666665552756,  0.972236750690185,  0.333333340755463 ]
    mass: 6.940000
    reduced_to: 1
  - symbol: Li # 18
    coordinates: [  0.999999998886089,  0.972236750690185,  0.333333340755463 ]
    mass: 6.940000
    reduced_to: 1
  - symbol: Li # 19
    coordinates: [  0.333333332219423,  0.305570084023519,  0.666666674088797 ]
    mass: 6.940000
    reduced_to: 1
  - symbol: Li # 20
    coordinates: [  0.666666665552756,  0.305570084023519,  0.666666674088797 ]
    mass: 6.940000
    reduced_to: 1
  - symbol: Li # 21
    coordinates: [  0.999999998886089,  0.305570084023519,  0.666666674088797 ]
    mass: 6.940000
    reduced_to: 1
  - symbol: Li # 22
    coordinates: [  0.333333332219423,  0.638903417356852,  0.666666674088797 ]
    mass: 6.940000
    reduced_to: 1
  - symbol: Li # 23
    coordinates: [  0.666666665552756,  0.638903417356852,  0.666666674088797 ]
    mass: 6.940000
    reduced_to: 1
  - symbol: Li # 24
    coordinates: [  0.999999998886089,  0.638903417356852,  0.666666674088797 ]
    mass: 6.940000
    reduced_to: 1
  - symbol: Li # 25
    coordinates: [  0.333333332219423,  0.972236750690185,  0.666666674088797 ]
    mass: 6.940000
    reduced_to: 1
  - symbol: Li # 26
    coordinates: [  0.666666665552756,  0.972236750690185,  0.666666674088797 ]
    mass: 6.940000
    reduced_to: 1
  - symbol: Li # 27
    coordinates: [  0.999999998886089,  0.972236750690185,  0.666666674088797 ]
    mass: 6.940000
    reduced_to: 1
  - symbol: Li # 28
    coordinates: [  0.166666663965190,  0.138992146725785,  0.333333325937137 ]
    mass: 6.940000
    reduced_to: 28
  - symbol: Li # 29
    coordinates: [  0.499999997298524,  0.138992146725785,  0.333333325937137 ]
    mass: 6.940000
    reduced_to: 28
  - symbol: Li # 30
    coordinates: [  0.833333330631857,  0.138992146725785,  0.333333325937137 ]
    mass: 6.940000
    reduced_to: 28
  - symbol: Li # 31
    coordinates: [  0.166666663965190,  0.472325480059119,  0.333333325937137 ]
    mass: 6.940000
    reduced_to: 28
  - symbol: Li # 32
    coordinates: [  0.499999997298524,  0.472325480059119,  0.333333325937137 ]
    mass: 6.940000
    reduced_to: 28
  - symbol: Li # 33
    coordinates: [  0.833333330631857,  0.472325480059119,  0.333333325937137 ]
    mass: 6.940000
    reduced_to: 28
  - symbol: Li # 34
    coordinates: [  0.166666663965190,  0.805658813392452,  0.333333325937137 ]
    mass: 6.940000
    reduced_to: 28
  - symbol: Li # 35
    coordinates: [  0.499999997298524,  0.805658813392452,  0.333333325937137 ]
    mass: 6.940000
    reduced_to: 28
  - symbol: Li # 36
    coordinates: [  0.833333330631857,  0.805658813392452,  0.333333325937137 ]
    mass: 6.940000
    reduced_to: 28
  - symbol: Li # 37
    coordinates: [  0.166666663965190,  0.138992146725785,  0.666666659270470 ]
    mass: 6.940000
    reduced_to: 28
  - symbol: Li # 38
    coordinates: [  0.499999997298524,  0.138992146725785,  0.666666659270470 ]
    mass: 6.940000
    reduced_to: 28
  - symbol: Li # 39
    coordinates: [  0.833333330631857,  0.138992146725785,  0.666666659270470 ]
    mass: 6.940000
    reduced_to: 28
  - symbol: Li # 40
    coordinates: [  0.166666663965190,  0.472325480059119,  0.666666659270470 ]
    mass: 6.940000
    reduced_to: 28
  - symbol: Li # 41
    coordinates: [  0.499999997298524,  0.472325480059119,  0.666666659270470 ]
    mass: 6.940000
    reduced_to: 28
  - symbol: Li # 42
    coordinates: [  0.833333330631857,  0.472325480059119,  0.666666659270470 ]
    mass: 6.940000
    reduced_to: 28
  - symbol: Li # 43
    coordinates: [  0.166666663965190,  0.805658813392452,  0.666666659270470 ]
    mass: 6.940000
    reduced_to: 28
  - symbol: Li # 44
    coordinates: [  0.499999997298524,  0.805658813392452,  0.666666659270470 ]
    mass: 6.940000
    reduced_to: 28
  - symbol: Li # 45
    coordinates: [  0.833333330631857,  0.805658813392452,  0.666666659270470 ]
    mass: 6.940000
    reduced_to: 28
  - symbol: Li # 46
    coordinates: [  0.166666663965190,  0.138992146725785,  0.999999992603803 ]
    mass: 6.940000
    reduced_to: 28
  - symbol: Li # 47
    coordinates: [  0.499999997298524,  0.138992146725785,  0.999999992603803 ]
    mass: 6.940000
    reduced_to: 28
  - symbol: Li # 48
    coordinates: [  0.833333330631857,  0.138992146725785,  0.999999992603803 ]
    mass: 6.940000
    reduced_to: 28
  - symbol: Li # 49
    coordinates: [  0.166666663965190,  0.472325480059119,  0.999999992603803 ]
    mass: 6.940000
    reduced_to: 28
  - symbol: Li # 50
    coordinates: [  0.499999997298524,  0.472325480059119,  0.999999992603803 ]
    mass: 6.940000
    reduced_to: 28
  - symbol: Li # 51
    coordinates: [  0.833333330631857,  0.472325480059119,  0.999999992603803 ]
    mass: 6.940000
    reduced_to: 28
  - symbol: Li # 52
    coordinates: [  0.166666663965190,  0.805658813392452,  0.999999992603803 ]
    mass: 6.940000
    reduced_to: 28
  - symbol: Li # 53
    coordinates: [  0.499999997298524,  0.805658813392452,  0.999999992603803 ]
    mass: 6.940000
    reduced_to: 28
  - symbol: Li # 54
    coordinates: [  0.833333330631857,  0.805658813392452,  0.999999992603803 ]
    mass: 6.940000
    reduced_to: 28
  - symbol: Li # 55
    coordinates: [  0.166666701051350,  0.305500885785817,  0.166666668383873 ]
    mass: 6.940000
    reduced_to: 55
  - symbol: Li # 56
    coordinates: [  0.500000034384684,  0.305500885785817,  0.166666668383873 ]
    mass: 6.940000
    reduced_to: 55
  - symbol: Li # 57
    coordinates: [  0.833333367718017,  0.305500885785817,  0.166666668383873 ]
    mass: 6.940000
    reduced_to: 55
  - symbol: Li # 58
    coordinates: [  0.166666701051350,  0.638834219119150,  0.166666668383873 ]
    mass: 6.940000
    reduced_to: 55
  - symbol: Li # 59
    coordinates: [  0.500000034384684,  0.638834219119150,  0.166666668383873 ]
    mass: 6.940000
    reduced_to: 55
  - symbol: Li # 60
    coordinates: [  0.833333367718017,  0.638834219119150,  0.166666668383873 ]
    mass: 6.940000
    reduced_to: 55
  - symbol: Li # 61
    coordinates: [  0.166666701051350,  0.972167552452484,  0.166666668383873 ]
    mass: 6.940000
    reduced_to: 55
  - symbol: Li # 62
    coordinates: [  0.500000034384684,  0.972167552452484,  0.166666668383873 ]
    mass: 6.940000
    reduced_to: 55
  - symbol: Li # 63
    coordinates: [  0.833333367718017,  0.972167552452484,  0.166666668383873 ]
    mass: 6.940000
    reduced_to: 55
  - symbol: Li # 64
    coordinates: [  0.166666701051350,  0.305500885785817,  0.500000001717206 ]
    mass: 6.940000
    reduced_to: 55
  - symbol: Li # 65
    coordinates: [  0.500000034384684,  0.305500885785817,  0.500000001717206 ]
    mass: 6.940000
    reduced_to: 55
  - symbol: Li # 66
    coordinates: [  0.833333367718017,  0.305500885785817,  0.500000001717206 ]
    mass: 6.940000
    reduced_to: 55
  - symbol: Li # 67
    coordinates: [  0.166666701051350,  0.638834219119150,  0.500000001717206 ]
    mass: 6.940000
    reduced_to: 55
  - symbol: Li # 68
    coordinates: [  0.500000034384684,  0.638834219119150,  0.500000001717206 ]
    mass: 6.940000
    reduced_to: 55
  - symbol: Li # 69
    coordinates: [  0.833333367718017,  0.638834219119150,  0.500000001717206 ]
    mass: 6.940000
    reduced_to: 55
  - symbol: Li # 70
    coordinates: [  0.166666701051350,  0.972167552452484,  0.500000001717206 ]
    mass: 6.940000
    reduced_to: 55
  - symbol: Li # 71
    coordinates: [  0.500000034384684,  0.972167552452484,  0.500000001717206 ]
    mass: 6.940000
    reduced_to: 55
  - symbol: Li # 72
    coordinates: [  0.833333367718017,  0.972167552452484,  0.500000001717206 ]
    mass: 6.940000
    reduced_to: 55
  - symbol: Li # 73
    coordinates: [  0.166666701051350,  0.305500885785817,  0.833333335050539 ]
    mass: 6.940000
    reduced_to: 55
  - symbol: Li # 74
    coordinates: [  0.500000034384684,  0.305500885785817,  0.833333335050539 ]
    mass: 6.940000
    reduced_to: 55
  - symbol: Li # 75
    coordinates: [  0.833333367718017,  0.305500885785817,  0.833333335050539 ]
    mass: 6.940000
    reduced_to: 55
  - symbol: Li # 76
    coordinates: [  0.166666701051350,  0.638834219119150,  0.833333335050539 ]
    mass: 6.940000
    reduced_to: 55
  - symbol: Li # 77
    coordinates: [  0.500000034384684,  0.638834219119150,  0.833333335050539 ]
    mass: 6.940000
    reduced_to: 55
  - symbol: Li # 78
    coordinates: [  0.833333367718017,  0.638834219119150,  0.833333335050539 ]
    mass: 6.940000
    reduced_to: 55
  - symbol: Li # 79
    coordinates: [  0.166666701051350,  0.972167552452484,  0.833333335050539 ]
    mass: 6.940000
    reduced_to: 55
  - symbol: Li # 80
    coordinates: [  0.500000034384684,  0.972167552452484,  0.833333335050539 ]
    mass: 6.940000
    reduced_to: 55
  - symbol: Li # 81
    coordinates: [  0.833333367718017,  0.972167552452484,  0.833333335050539 ]
    mass: 6.940000
    reduced_to: 55
  - symbol: Sn # 82
    coordinates: [  0.333333302776778,  0.138825772111825,  0.166666665039121 ]
    mass: 118.710000
    reduced_to: 82
  - symbol: Sn # 83
    coordinates: [  0.666666636110111,  0.138825772111825,  0.166666665039121 ]
    mass: 118.710000
    reduced_to: 82
  - symbol: Sn # 84
    coordinates: [  0.999999969443444,  0.138825772111825,  0.166666665039121 ]
    mass: 118.710000
    reduced_to: 82
  - symbol: Sn # 85
    coordinates: [  0.333333302776778,  0.472159105445158,  0.166666665039121 ]
    mass: 118.710000
    reduced_to: 82
  - symbol: Sn # 86
    coordinates: [  0.666666636110111,  0.472159105445158,  0.166666665039121 ]
    mass: 118.710000
    reduced_to: 82
  - symbol: Sn # 87
    coordinates: [  0.999999969443444,  0.472159105445158,  0.166666665039121 ]
    mass: 118.710000
    reduced_to: 82
  - symbol: Sn # 88
    coordinates: [  0.333333302776778,  0.805492438778491,  0.166666665039121 ]
    mass: 118.710000
    reduced_to: 82
  - symbol: Sn # 89
    coordinates: [  0.666666636110111,  0.805492438778491,  0.166666665039121 ]
    mass: 118.710000
    reduced_to: 82
  - symbol: Sn # 90
    coordinates: [  0.999999969443444,  0.805492438778491,  0.166666665039121 ]
    mass: 118.710000
    reduced_to: 82
  - symbol: Sn # 91
    coordinates: [  0.333333302776778,  0.138825772111825,  0.499999998372454 ]
    mass: 118.710000
    reduced_to: 82
  - symbol: Sn # 92
    coordinates: [  0.666666636110111,  0.138825772111825,  0.499999998372454 ]
    mass: 118.710000
    reduced_to: 82
  - symbol: Sn # 93
    coordinates: [  0.999999969443444,  0.138825772111825,  0.499999998372454 ]
    mass: 118.710000
    reduced_to: 82
  - symbol: Sn # 94
    coordinates: [  0.333333302776778,  0.472159105445158,  0.499999998372454 ]
    mass: 118.710000
    reduced_to: 82
  - symbol: Sn # 95
    coordinates: [  0.666666636110111,  0.472159105445158,  0.499999998372454 ]
    mass: 118.710000
    reduced_to: 82
  - symbol: Sn # 96
    coordinates: [  0.999999969443444,  0.472159105445158,  0.499999998372454 ]
    mass: 118.710000
    reduced_to: 82
  - symbol: Sn # 97
    coordinates: [  0.333333302776778,  0.805492438778491,  0.499999998372454 ]
    mass: 118.710000
    reduced_to: 82
  - symbol: Sn # 98
    coordinates: [  0.666666636110111,  0.805492438778491,  0.499999998372454 ]
    mass: 118.710000
    reduced_to: 82
  - symbol: Sn # 99
    coordinates: [  0.999999969443444,  0.805492438778491,  0.499999998372454 ]
    mass: 118.710000
    reduced_to: 82
  - symbol: Sn # 100
    coordinates: [  0.333333302776778,  0.138825772111825,  0.833333331705787 ]
    mass: 118.710000
    reduced_to: 82
  - symbol: Sn # 101
    coordinates: [  0.666666636110111,  0.138825772111825,  0.833333331705787 ]
    mass: 118.710000
    reduced_to: 82
  - symbol: Sn # 102
    coordinates: [  0.999999969443444,  0.138825772111825,  0.833333331705787 ]
    mass: 118.710000
    reduced_to: 82
  - symbol: Sn # 103
    coordinates: [  0.333333302776778,  0.472159105445158,  0.833333331705787 ]
    mass: 118.710000
    reduced_to: 82
  - symbol: Sn # 104
    coordinates: [  0.666666636110111,  0.472159105445158,  0.833333331705787 ]
    mass: 118.710000
    reduced_to: 82
  - symbol: Sn # 105
    coordinates: [  0.999999969443444,  0.472159105445158,  0.833333331705787 ]
    mass: 118.710000
    reduced_to: 82
  - symbol: Sn # 106
    coordinates: [  0.333333302776778,  0.805492438778491,  0.833333331705787 ]
    mass: 118.710000
    reduced_to: 82
  - symbol: Sn # 107
    coordinates: [  0.666666636110111,  0.805492438778491,  0.833333331705787 ]
    mass: 118.710000
    reduced_to: 82
  - symbol: Sn # 108
    coordinates: [  0.999999969443444,  0.805492438778491,  0.833333331705787 ]
    mass: 118.710000
    reduced_to: 82

displacements:
- atom:    1
  displacement:
    [   0.0057658323916497,  0.0057774596275530,  0.0057772084161296 ]
  forces:
  - [  -0.0107599422335625, -0.0119143780320883, -0.0114952269941568 ]
  - [  -0.0006202132790349, -0.0003155823796988,  0.0001040305942297 ]
  - [  -0.0006177591858432, -0.0003155888989568,  0.0001019351184368 ]
  - [  -0.0000034937020246, -0.0006042700260878, -0.0000281166285276 ]
  - [  -0.0000387876098102, -0.0004456657916307,  0.0000001005828381 ]
  - [  -0.0000442495547759, -0.0004533696919680, -0.0000000745058060 ]
  - [  -0.0000055106847867, -0.0005939659895375, -0.0000470429658890 ]
  - [  -0.0000465447883471, -0.0004518976493273, -0.0000131819397211 ]
  - [  -0.0000407755469496, -0.0004466559330467, -0.0000124452635646 ]
  - [  -0.0000037386125769, -0.0004475936293602, -0.0001868642866611 ]
  - [  -0.0000385840612580, -0.0004201624542475, -0.0000274768099189 ]
  - [  -0.0000460610499431, -0.0004194686189294, -0.0000351099297404 ]
  - [  -0.0000786704331404, -0.0014740554615855, -0.0010659983381629 ]
  - [   0.0000156969217642, -0.0004120897501707, -0.0000058375298977 ]
  - [  -0.0000032521068078, -0.0004216432571411, -0.0000148164108396 ]
  - [  -0.0000766902812757, -0.0005273713031784, -0.0001030331477523 ]
  - [   0.0000062678709583, -0.0004191004263703,  0.0000093244016171 ]
  - [   0.0000069714478741, -0.0004093460738659, -0.0000004209578037 ]
  - [  -0.0000046864624892, -0.0004649637266994, -0.0001889988780022 ]
  - [  -0.0000445819459856, -0.0004309639334679, -0.0000469312071800 ]
  - [  -0.0000407287479902, -0.0004302524030209, -0.0000409632921219 ]
  - [  -0.0000776782544563, -0.0005167741328478, -0.0001137219369411 ]
  - [   0.0000062779126893, -0.0004028491675854, -0.0000058338046074 ]
  - [   0.0000071226386353, -0.0004124287515879,  0.0000037923455238 ]
  - [  -0.0000744978024159, -0.0014842861564830, -0.0010798200964928 ]
  - [  -0.0000035435043628, -0.0004138056829106, -0.0000080130994320 ]
  - [   0.0000151216700033, -0.0004052482545376,  0.0000011362135410 ]
  - [  -0.0000439807336079, -0.0036052109207958, -0.0000568768009543 ]
  - [   0.0002335049211979, -0.0035337568260729,  0.0001895762979984 ]
  - [   0.0000014752149582, -0.0035455655306578,  0.0000187642872334 ]
  - [   0.0003483710461296, -0.0032857079058886, -0.0001728832721710 ]
  - [  -0.0001541897654533, -0.0033580942545086,  0.0000793802901171 ]
  - [   0.0000000819563866, -0.0035412111319602, -0.0000374060036847 ]
  - [   0.0000257497904386, -0.0035425312817097, -0.0000112876296043 ]
  - [  -0.0000273101031780, -0.0035426209215075, -0.0000065744097810 ]
  - [  -0.0000009760260582, -0.0035430216230452,  0.0000037870777305 ]
  - [  -0.0001513815368526, -0.0033558248542249,  0.0000835880637169 ]
  - [   0.0003377906978130, -0.0032866029068828, -0.0001605115830898 ]
  - [   0.0000003799796104, -0.0035412921570241, -0.0000363439321518 ]
  - [   0.0002341585786780, -0.0035356874577701,  0.0001920312643051 ]
  - [  -0.0000422373414040, -0.0036060367710888, -0.0000575684680371 ]
  - [  -0.0000002309679985, -0.0035454027820379,  0.0000181386421900 ]
  - [  -0.0000256567709584, -0.0035409270785749, -0.0000064559280872 ]
  - [   0.0000258311629295, -0.0035431631840765, -0.0000109289103420 ]
  - [  -0.0000013150274754, -0.0035438879858702,  0.0000040922313929 ]
  - [   0.0025563794188201, -0.0011754615698010, -0.0001257751137018 ]
  - [  -0.0002118647098541, -0.0035431813448668, -0.0001290366053581 ]
  - [   0.0000163912773132, -0.0035450055729598,  0.0000189170241356 ]
  - [  -0.0002031040494330, -0.0035531851463020, -0.0001312866806984 ]
  - [   0.0025849044322968, -0.0011436505010352, -0.0001357599976473 ]
  - [   0.0000130459666252, -0.0035419510677457,  0.0000194523454411 ]
  - [  -0.0000012442436628, -0.0035267565399408,  0.0000191032886505 ]
  - [  -0.0000012107193470, -0.0035273083485663,  0.0000190857099369 ]
  - [   0.0000016205012798, -0.0035423692315817, -0.0000071787071647 ]
  - [  -0.0002031413896475,  0.0015375362709165, -0.0000116596929729 ]
  - [   0.0025893189013004,  0.0015315072378144,  0.0024047510232776 ]
  - [   0.0000149868428707,  0.0016895233420655, -0.0000007022172213 ]
  - [   0.0003453517274465,  0.0014975545927882,  0.0002578045241535 ]
  - [  -0.0001536868512630,  0.0017495605861768,  0.0001849667169154 ]
  - [  -0.0000029578804970,  0.0016309821512550,  0.0000021692831069 ]
  - [   0.0002315261372132,  0.0018595299916342,  0.0000073111150414 ]
  - [  -0.0000438913702965,  0.0016117870109156, -0.0000633010640740 ]
  - [  -0.0000013634562492,  0.0016872289124876, -0.0000022330787033 ]
  - [  -0.0000013163403310,  0.0016880575567484,  0.0000166194513440 ]
  - [  -0.0000039115548134,  0.0016875163419172,  0.0000162690412253 ]
  - [   0.0000000596046448,  0.0016615159111097,  0.0000012561213225 ]
  - [   0.0000245856026595,  0.0016561066731811, -0.0000002789311111 ]
  - [  -0.0000290796160698,  0.0016615800559521,  0.0000000928994268 ]
  - [  -0.0000012554228306,  0.0016716147074476, -0.0000004053581506 ]
  - [  -0.0000294341753033,  0.0016611259197816,  0.0000004498288035 ]
  - [   0.0000254623591900,  0.0016568629071116,  0.0000007459893823 ]
  - [  -0.0000010319054127,  0.0016713562654331, -0.0000001229345798 ]
  - [   0.0025492957793176,  0.0015448946505785,  0.0023640722502023 ]
  - [  -0.0002144901081920,  0.0015409179031849,  0.0000025948102120 ]
  - [   0.0000155679881573,  0.0016875378787518, -0.0000010018557077 ]
  - [  -0.0000461385461676,  0.0016119703650475, -0.0000623292289674 ]
  - [   0.0002317661419511,  0.0018588937819004,  0.0000092263217084 ]
  - [  -0.0000013262033463,  0.0016869418323040, -0.0000023688626243 ]
  - [  -0.0001536607742310,  0.0017523306887597,  0.0001880114432424 ]
  - [   0.0003383001312613,  0.0015079255681485,  0.0002568901982158 ]
  - [  -0.0000025555491447,  0.0016321729635820,  0.0000022498425096 ]
  - [   0.0004008934192825,  0.0020612841472030, -0.0002541020512581 ]
  - [  -0.0000047958110372,  0.0023744134232402,  0.0001258328557014 ]
  - [   0.0000010116491467,  0.0024192472919822,  0.0000807493925095 ]
  - [   0.0003901918826159,  0.0067113302648067,  0.0044220983982086 ]
  - [   0.0003602530341595,  0.0023370832204819,  0.0000444687902927 ]
  - [  -0.0003598133625928,  0.0022917650640011, -0.0000005327165127 ]
  - [   0.0000102743497337,  0.0025837942957878, -0.0000360719859600 ]
  - [  -0.0000172927975655,  0.0022525787353516, -0.0000145211815834 ]
  - [   0.0000165480614669,  0.0022533312439919, -0.0000119693577290 ]
  - [   0.0000113112510007,  0.0022560085635632,  0.0002899765968323 ]
  - [   0.0000130224279928,  0.0022816236596555, -0.0000411495566368 ]
  - [  -0.0000209863337659,  0.0022793363314122, -0.0000415369868279 ]
  - [   0.0000120189715744,  0.0022705397568643,  0.0003037974238396 ]
  - [  -0.0000185221433640,  0.0022904104553163, -0.0000290237367153 ]
  - [   0.0000144522637129,  0.0022926121018827, -0.0000287070870399 ]
  - [   0.0000036098062992,  0.0023298326414078,  0.0000601857900620 ]
  - [   0.0000010666163917,  0.0022840674500912,  0.0000139512121677 ]
  - [   0.0000016856938601,  0.0022846374195069,  0.0000140629708767 ]
  - [   0.0004070959985256,  0.0065357075072825,  0.0042420998215675 ]
  - [  -0.0003613419830799,  0.0023017616476864,  0.0000101104378700 ]
  - [   0.0003561933699530,  0.0023454762995243,  0.0000544823706150 ]
  - [   0.0003969296813011,  0.0020363330841064, -0.0002352767623961 ]
  - [  -0.0000022377134883,  0.0024200081825256,  0.0000816108658910 ]
  - [   0.0000013937242329,  0.0023745931684971,  0.0001260563731194 ]
  - [   0.0000101514160633,  0.0025693587958813, -0.0000252332538366 ]
  - [   0.0000156462192535,  0.0022384785115719, -0.0000003371387720 ]
  - [  -0.0000181824198080,  0.0022390037775040, -0.0000025033950806 ]
- atom:    1
  displacement:
    [  -0.0057658323916497, -0.0057774596275530, -0.0057772084161296 ]
  forces:
  - [   0.0107605848461390,  0.0110771274194121,  0.0114945694804192 ]
  - [   0.0006201524520293, -0.0005228724330664, -0.0001041423529387 ]
  - [   0.0006243630778044, -0.0005244901403785, -0.0001064073294401 ]
  - [   0.0000064268606366, -0.0002173380926251,  0.0000587534159422 ]
  - [   0.0000407333754993, -0.0003649229183793,  0.0000246046110988 ]
  - [   0.0000479545960843, -0.0003594877198339,  0.0000243438407779 ]
  - [   0.0000043569471018, -0.0002069912297884,  0.0000401362776756 ]
  - [   0.0000459352886537, -0.0003581278142519,  0.0000114226713777 ]
  - [   0.0000385797284252, -0.0003658618370537,  0.0000122487545013 ]
  - [   0.0000060634865804, -0.0003608576953411,  0.0002003973349929 ]
  - [   0.0000405012942792, -0.0003952356055379,  0.0000531179830432 ]
  - [   0.0000464949625893, -0.0003950381651521,  0.0000585755333304 ]
  - [   0.0000754284774303,  0.0006781546398997,  0.0010841190814972 ]
  - [  -0.0000142609314935, -0.0004023239016533,  0.0000038659200072 ]
  - [   0.0000042677847887, -0.0003931131213903,  0.0000139530748129 ]
  - [   0.0000774342552177, -0.0003136806772090,  0.0001088371500373 ]
  - [  -0.0000050162652769, -0.0004178151430096, -0.0000081826001406 ]
  - [  -0.0000042373835640, -0.0004268139600754,  0.0000009862706065 ]
  - [   0.0000050900271162, -0.0003782892599702,  0.0001985719427466 ]
  - [   0.0000475628767163, -0.0004064692184329,  0.0000469572842121 ]
  - [   0.0000389394626836, -0.0004062429070473,  0.0000400692224503 ]
  - [   0.0000764153519413, -0.0003045415505767,  0.0000996589660645 ]
  - [  -0.0000048499937293, -0.0004201075062156, -0.0000044070184231 ]
  - [  -0.0000041521416279, -0.0004110233858228, -0.0000137872993946 ]
  - [   0.0000797060056357,  0.0006655390607193,  0.0010722577571869 ]
  - [   0.0000041354705900, -0.0003852322697639,  0.0000205524265766 ]
  - [  -0.0000149503739522, -0.0003954097628593,  0.0000110501423478 ]
  - [   0.0000410337088397, -0.0034806202165782,  0.0000578789040446 ]
  - [  -0.0002351216971874, -0.0035510435700417, -0.0001903213560581 ]
  - [  -0.0000000447034836, -0.0035410383716226, -0.0000168085098267 ]
  - [  -0.0003428601194173, -0.0038006170652807,  0.0001644007861614 ]
  - [   0.0001516491174698, -0.0037320582196116, -0.0000811732315924 ]
  - [  -0.0000014379620552, -0.0035452903248370,  0.0000366033782484 ]
  - [  -0.0000281880766124, -0.0035439073108137,  0.0000118277966976 ]
  - [   0.0000268742442131, -0.0035439128987491,  0.0000082205078797 ]
  - [  -0.0000014454126358, -0.0035433471202850, -0.0000028122740332 ]
  - [   0.0001497013872722, -0.0037286505103111, -0.0000788653269410 ]
  - [  -0.0003469027578831, -0.0038013150915504,  0.0001716315746307 ]
  - [  -0.0000011101365089, -0.0035455031320453,  0.0000376440584660 ]
  - [  -0.0002356631739531, -0.0035516815260053, -0.0001896247267723 ]
  - [   0.0000421591103077, -0.0034811340738088,  0.0000589456612943 ]
  - [  -0.0000017881393433, -0.0035408942494541, -0.0000174484739546 ]
  - [   0.0000285771839117, -0.0035424737725407,  0.0000079981982708 ]
  - [  -0.0000279247760773, -0.0035445631947368,  0.0000120312906802 ]
  - [  -0.0000016577541828, -0.0035442996304482, -0.0000025182962418 ]
  - [  -0.0025980896316469, -0.0059537757188082,  0.0001361705362797 ]
  - [   0.0002018585801125, -0.0035318753216416,  0.0001325011253357 ]
  - [  -0.0000176243484020, -0.0035434947349131, -0.0000194907188416 ]
  - [   0.0002113153022947, -0.0035471434239298,  0.0001277141273022 ]
  - [  -0.0025462321937084, -0.0059007536619902,  0.0001235328090843 ]
  - [  -0.0000214092433453, -0.0035402423236519, -0.0000189381826203 ]
  - [   0.0000001138720052, -0.0035610529594123, -0.0000186115503311 ]
  - [   0.0000001788139343, -0.0035617451649159, -0.0000187772238860 ]
  - [  -0.0000015459954739, -0.0035455222241580,  0.0000059148296714 ]
  - [   0.0002088198380079,  0.0017980458214879, -0.0000015550758690 ]
  - [  -0.0025525093078613,  0.0017953439382836, -0.0023623781744391 ]
  - [  -0.0000191219151020,  0.0016509456327185,  0.0000009562354535 ]
  - [  -0.0003431340737734,  0.0018332004547119, -0.0002575307153165 ]
  - [   0.0001496896147728,  0.0015880273422226, -0.0001885150559247 ]
  - [  -0.0000043511390686,  0.0017049490706995, -0.0000020116567612 ]
  - [  -0.0002370259753661,  0.0014791100984439, -0.0000089146196842 ]
  - [   0.0000406242907047,  0.0017271722899750,  0.0000616395846009 ]
  - [  -0.0000026561319828,  0.0016516330651939,  0.0000022146850824 ]
  - [   0.0000002743585696,  0.0016502011567354, -0.0000177316833287 ]