# Thermal properties / unit cell (natom)

unit:
  temperature:   K
  free_energy:   kJ/mol
  entropy:       J/K/mol
  heat_capacity: J/K/mol

natom: 4    
cutoff_frequency: 0.00000
num_modes: 165888
num_integrated_modes: 165885

zero_point_energy:      15.7840733

thermal_properties:
- temperature:         0.0000000
  free_energy:        15.7840733
  entropy:             0.0000000
  heat_capacity:       0.0000000
  energy:             15.7840733

- temperature:        10.0000000
  free_energy:        15.7836504
  entropy:             0.1976274
  heat_capacity:       0.7571174
  energy:             15.7856266

- temperature:        20.0000000
  free_energy:        15.7733508
  entropy:             2.3211910
  heat_capacity:       6.8008741
  energy:             15.8197747

- temperature:        30.0000000
  free_energy:        15.7307417
  entropy:             6.3658260
  heat_capacity:      13.2561514
  energy:             15.9217164

- temperature:        40.0000000
  free_energy:        15.6446709
  entropy:            10.8626289
  heat_capacity:      18.0684367
  energy:             16.0791761

- temperature:        50.0000000
  free_energy:        15.5134958
  entropy:            15.3698967
  heat_capacity:      22.5210952
  energy:             16.2819906

- temperature:        60.0000000
  free_energy:        15.3372192
  entropy:            19.8939396
  heat_capacity:      27.3282761
  energy:             16.5308556

- temperature:        70.0000000
  free_energy:        15.1153595
  entropy:            24.4936537
  heat_capacity:      32.5353144
  energy:             16.8299153

- temperature:        80.0000000
  free_energy:        14.8470222
  entropy:            29.1893256
  heat_capacity:      37.9240045
  energy:             17.1821682

- temperature:        90.0000000
  free_energy:        14.5313034
  entropy:            33.9652963
  heat_capacity:      43.2504075
  energy:             17.5881801

- temperature:       100.0000000
  free_energy:        14.1675604
  entropy:            38.7878931
  heat_capacity:      48.3313508
  energy:             18.0463497

- temperature:       110.0000000
  free_energy:        13.7555173
  entropy:            43.6190765
  heat_capacity:      53.0568747
  energy:             18.5536158

- temperature:       120.0000000
  free_energy:        13.2952676
  entropy:            48.4238452
  heat_capacity:      57.3762885
  energy:             19.1061291

- temperature:       130.0000000
  free_energy:        12.7872257
  entropy:            53.1732744
  heat_capacity:      61.2794492
  energy:             19.6997513

- temperature:       140.0000000
  free_energy:        12.2320615
  entropy:            57.8451157
  heat_capacity:      64.7809235
  energy:             20.3303777

- temperature:       150.0000000
  free_energy:        11.6306363
  entropy:            62.4232468
  heat_capacity:      67.9086343
  energy:             20.9941233

- temperature:       160.0000000
  free_energy:        10.9839459
  entropy:            66.8966956
  heat_capacity:      70.6964433
  energy:             21.6874172

- temperature:       170.0000000
  free_energy:        10.2930745
  entropy:            71.2586023
  heat_capacity:      73.1796325
  energy:             22.4070369

- temperature:       180.0000000
  free_energy:         9.5591582
  entropy:            75.5052794
  heat_capacity:      75.3923391
  energy:             23.1501085

- temperature:       190.0000000
  free_energy:         8.7833576
  entropy:            79.6354233
  heat_capacity:      77.3662336
  energy:             23.9140880

- temperature:       200.0000000
  free_energy:         7.9668369
  entropy:            83.6494806
  heat_capacity:      79.1299537
  energy:             24.6967330

- temperature:       210.0000000
  free_energy:         7.1107493
  entropy:            87.5491544
  heat_capacity:      80.7089792
  energy:             25.4960718

- temperature:       220.0000000
  free_energy:         6.2162265
  entropy:            91.3370250
  heat_capacity:      82.1257470
  energy:             26.3103720

- temperature:       230.0000000
  free_energy:         5.2843710
  entropy:            95.0162633
  heat_capacity:      83.3998868
  energy:             27.1381116

- temperature:       240.0000000
  free_energy:         4.3162516
  entropy:            98.5904168
  heat_capacity:      84.5485059
  energy:             27.9779516

- temperature:       250.0000000
  free_energy:         3.3129004
  entropy:           102.0632507
  heat_capacity:      85.5864829
  energy:             28.8287131

- temperature:       260.0000000
  free_energy:         2.2753114
  entropy:           105.4386321
  heat_capacity:      86.5267474
  energy:             29.6893557

- temperature:       270.0000000
  free_energy:         1.2044396
  entropy:           108.7204456
  heat_capacity:      87.3805373
  energy:             30.5589599

- temperature:       280.0000000
  free_energy:         0.1012016
  entropy:           111.9125336
  heat_capacity:      88.1576278
  energy:             31.4367110

- temperature:       290.0000000
  free_energy:        -1.0335245
  entropy:           115.0186546
  heat_capacity:      88.8665326
  energy:             32.3218853

- temperature:       300.0000000
  free_energy:        -2.1988971
  entropy:           118.0424544
  heat_capacity:      89.5146784
  energy:             33.2138392

- temperature:       310.0000000
  free_energy:        -3.3941109
  entropy:           120.9874484
  heat_capacity:      90.1085560
  energy:             34.1119981

- temperature:       320.0000000
  free_energy:        -4.6183947
  entropy:           123.8570098
  heat_capacity:      90.6538498
  energy:             35.0158484

- temperature:       330.0000000
  free_energy:        -5.8710104
  entropy:           126.6543645
  heat_capacity:      91.1555482
  energy:             35.9249298

- temperature:       340.0000000
  free_energy:        -7.1512516
  entropy:           129.3825892
  heat_capacity:      91.6180386
  energy:             36.8388288

- temperature:       350.0000000
  free_energy:        -8.4584416
  entropy:           132.0446126
  heat_capacity:      92.0451888
  energy:             37.7571729

- temperature:       360.0000000
  free_energy:        -9.7919324
  entropy:           134.6432184
  heat_capacity:      92.4404155
  energy:             38.6796262

- temperature:       370.0000000
  free_energy:       -11.1511034
  entropy:           137.1810493
  heat_capacity:      92.8067445
  energy:             39.6058849

- temperature:       380.0000000
  free_energy:       -12.5353592
  entropy:           139.6606130
  heat_capacity:      93.1468608
  energy:             40.5356737

- temperature:       390.0000000
  free_energy:       -13.9441293
  entropy:           142.0842873
  heat_capacity:      93.4631525
  energy:             41.4687427

- temperature:       400.0000000
  free_energy:       -15.3768662
  entropy:           144.4543267
  heat_capacity:      93.7577482
  energy:             42.4048645

- temperature:       410.0000000
  free_energy:       -16.8330442
  entropy:           146.7728681
  heat_capacity:      94.0325493
  energy:             43.3438317

- temperature:       420.0000000
  free_energy:       -18.3121587
  entropy:           149.0419377
  heat_capacity:      94.2892575
  energy:             44.2854552

- temperature:       430.0000000
  free_energy:       -19.8137245
  entropy:           151.2634561
  heat_capacity:      94.5293992
  energy:             45.2295617

- temperature:       440.0000000
  free_energy:       -21.3372754
  entropy:           153.4392452
  heat_capacity:      94.7543461
  energy:             46.1759925

- temperature:       450.0000000
  free_energy:       -22.8823627
  entropy:           155.5710329
  heat_capacity:      94.9653334
  energy:             47.1246021

- temperature:       460.0000000
  free_energy:       -24.4485548
  entropy:           157.6604591
  heat_capacity:      95.1634751
  energy:             48.0752564

- temperature:       470.0000000
  free_energy:       -26.0354359
  entropy:           159.7090809
  heat_capacity:      95.3497783
  energy:             49.0278321

- temperature:       480.0000000
  free_energy:       -27.6426054
  entropy:           161.7183769
  heat_capacity:      95.5251547
  energy:             49.9822155

- temperature:       490.0000000
  free_energy:       -29.2696770
  entropy:           163.6897522
  heat_capacity:      95.6904310
  energy:             50.9383016

- temperature:       500.0000000
  free_energy:       -30.9162785
  entropy:           165.6245429
  heat_capacity:      95.8463584
  energy:             51.8959930

- temperature:       510.0000000
  free_energy:       -32.5820502
  entropy:           167.5240197
  heat_capacity:      95.9936205
  energy:             52.8551998

- temperature:       520.0000000
  free_energy:       -34.2666452
  entropy:           169.3893919
  heat_capacity:      96.1328402
  energy:             53.8158386

- temperature:       530.0000000
  free_energy:       -35.9697282
  entropy:           171.2218112
  heat_capacity:      96.2645860
  energy:             54.7778317

- temperature:       540.0000000
  free_energy:       -37.6909752
  entropy:           173.0223748
  heat_capacity:      96.3893778
  energy:             55.7411071

- temperature:       550.0000000
  free_energy:       -39.4300730
  entropy:           174.7921285
  heat_capacity:      96.5076915
  energy:             56.7055977

- temperature:       560.0000000
  free_energy:       -41.1867184
  entropy:           176.5320701
  heat_capacity:      96.6199634
  energy:             57.6712408

- temperature:       570.0000000
  free_energy:       -42.9606182
  entropy:           178.2431515
  heat_capacity:      96.7265941
  energy:             58.6379782

- temperature:       580.0000000
  free_energy:       -44.7514883
  entropy:           179.9262818
  heat_capacity:      96.8279517
  energy:             59.6057552

- temperature:       590.0000000
  free_energy:       -46.5590536
  entropy:           181.5823294
  heat_capacity:      96.9243752
  energy:             60.5745208

- temperature:       600.0000000
  free_energy:       -48.3830474
  entropy:           183.2121244
  heat_capacity:      97.0161771
  energy:             61.5442273

- temperature:       610.0000000
  free_energy:       -50.2232112
  entropy:           184.8164608
  heat_capacity:      97.1036454
  energy:             62.5148299

- temperature:       620.0000000
  free_energy:       -52.0792943
  entropy:           186.3960982
  heat_capacity:      97.1870467
  energy:             63.4862866

- temperature:       630.0000000
  free_energy:       -53.9510533
  entropy:           187.9517640
  heat_capacity:      97.2666272
  energy:             64.4585581

- temperature:       640.0000000
  free_energy:       -55.8382520
  entropy:           189.4841549
  heat_capacity:      97.3426150
  energy:             65.4316072

- temperature:       650.0000000
  free_energy:       -57.7406610
  entropy:           190.9939386
  heat_capacity:      97.4152217
  energy:             66.4053991

- temperature:       660.0000000
  free_energy:       -59.6580575
  entropy:           192.4817553
  heat_capacity:      97.4846434
  energy:             67.3799010

- temperature:       670.0000000
  free_energy:       -61.5902249
  entropy:           193.9482192
  heat_capacity:      97.5510625
  energy:             68.3550820

- temperature:       680.0000000
  free_energy:       -63.5369527
  entropy:           195.3939198
  heat_capacity:      97.6146485
  energy:             69.3309128

- temperature:       690.0000000
  free_energy:       -65.4980360
  entropy:           196.8194232
  heat_capacity:      97.6755593
  energy:             70.3073660

- temperature:       700.0000000
  free_energy:       -67.4732756
  entropy:           198.2252732
  heat_capacity:      97.7339419
  energy:             71.2844156

- temperature:       710.0000000
  free_energy:       -69.4624777
  entropy:           199.6119924
  heat_capacity:      97.7899335
  energy:             72.2620369

- temperature:       720.0000000
  free_energy:       -71.4654534
  entropy:           200.9800835
  heat_capacity:      97.8436621
  energy:             73.2402067

- temperature:       730.0000000
  free_energy:       -73.4820189
  entropy:           202.3300300
  heat_capacity:      97.8952474
  energy:             74.2189030

- temperature:       740.0000000
  free_energy:       -75.5119951
  entropy:           203.6622972
  heat_capacity:      97.9448011
  energy:             75.1981049

- temperature:       750.0000000
  free_energy:       -77.5552074
  entropy:           204.9773333
  heat_capacity:      97.9924281
  energy:             76.1777926

- temperature:       760.0000000
  free_energy:       -79.6114857
  entropy:           206.2755698
  heat_capacity:      98.0382264
  energy:             77.1579473

- temperature:       770.0000000
  free_energy:       -81.6806642
  entropy:           207.5574227
  heat_capacity:      98.0822879
  energy:             78.1385513

- temperature:       780.0000000
  free_energy:       -83.7625809
  entropy:           208.8232930
  heat_capacity:      98.1246990
  energy:             79.1195876

- temperature:       790.0000000
  free_energy:       -85.8570781
  entropy:           210.0735673
  heat_capacity:      98.1655406
  energy:             80.1010401

- temperature:       800.0000000
  free_energy:       -87.9640015
  entropy:           211.3086187
  heat_capacity:      98.2048889
  energy:             81.0828934

- temperature:       810.0000000
  free_energy:       -90.0832009
  entropy:           212.5288074
  heat_capacity:      98.2428155
  energy:             82.0651331

- temperature:       820.0000000
  free_energy:       -92.2145293
  entropy:           213.7344811
  heat_capacity:      98.2793877
  energy:             83.0477452

- temperature:       830.0000000
  free_energy:       -94.3578433
  entropy:           214.9259757
  heat_capacity:      98.3146690
  energy:             84.0307166

- temperature:       840.0000000
  free_energy:       -96.5130026
  entropy:           216.1036156
  heat_capacity:      98.3487191
  energy:             85.0140345

- temperature:       850.0000000
  free_energy:       -98.6798704
  entropy:           217.2677147
  heat_capacity:      98.3815945
  energy:             85.9976870

- temperature:       860.0000000
  free_energy:      -100.8583128
  entropy:           218.4185761
  heat_capacity:      98.4133483
  energy:             86.9816627

- temperature:       870.0000000
  free_energy:      -103.0481988
  entropy:           219.5564934
  heat_capacity:      98.4440309
  energy:             87.9659504

- temperature:       880.0000000
  free_energy:      -105.2494005
  entropy:           220.6817504
  heat_capacity:      98.4736895
  energy:             88.9505399

- temperature:       890.0000000
  free_energy:      -107.4617925
  entropy:           221.7946219
  heat_capacity:      98.5023692
  energy:             89.9354209

- temperature:       900.0000000
  free_energy:      -109.6852525
  entropy:           222.8953740
  heat_capacity:      98.5301124
  energy:             90.9205841

- temperature:       910.0000000
  free_energy:      -111.9196605
  entropy:           223.9842645
  heat_capacity:      98.5569593
  energy:             91.9060202

- temperature:       920.0000000
  free_energy:      -114.1648991
  entropy:           225.0615430
  heat_capacity:      98.5829479
  energy:             92.8917204

- temperature:       930.0000000
  free_energy:      -116.4208534
  entropy:           226.1274515
  heat_capacity:      98.6081143
  energy:             93.8776764

- temperature:       940.0000000
  free_energy:      -118.6874110
  entropy:           227.1822246
  heat_capacity:      98.6324927
  energy:             94.8638801

- temperature:       950.0000000
  free_energy:      -120.9644616
  entropy:           228.2260898
  heat_capacity:      98.6561155
  energy:             95.8503238

- temperature:       960.0000000
  free_energy:      -123.2518972
  entropy:           229.2592679
  heat_capacity:      98.6790136
  energy:             96.8370000

- temperature:       970.0000000
  free_energy:      -125.5496120
  entropy:           230.2819729
  heat_capacity:      98.7012163
  energy:             97.8239017

- temperature:       980.0000000
  free_energy:      -127.8575024
  entropy:           231.2944128
  heat_capacity:      98.7227512
  energy:             98.8110221

- temperature:       990.0000000
  free_energy:      -130.1754667
  entropy:           232.2967892
  heat_capacity:      98.7436448
  energy:             99.7983546

- temperature:      1000.0000000
  free_energy:      -132.5034053
  entropy:           233.2892983
  heat_capacity:      98.7639223
  energy:            100.7858929
