# Thermal properties / unit cell (natom)

unit:
  temperature:   K
  free_energy:   kJ/mol
  entropy:       J/K/mol
  heat_capacity: J/K/mol

natom: 20   
cutoff_frequency: 0.00000
num_modes: 202500
num_integrated_modes: 202498

zero_point_energy:      78.0026212

thermal_properties:
- temperature:         0.0000000
  free_energy:        78.0026212
  entropy:             0.0000000
  heat_capacity:       0.0000000
  energy:             78.0026212

- temperature:        10.0000000
  free_energy:        77.9989961
  entropy:             1.5161616
  heat_capacity:       5.1541797
  energy:             78.0141577

- temperature:        20.0000000
  free_energy:        77.9378852
  entropy:            12.5837704
  heat_capacity:      32.4304307
  energy:             78.1895606

- temperature:        30.0000000
  free_energy:        77.7199478
  entropy:            31.8906571
  heat_capacity:      64.8064111
  energy:             78.6766675

- temperature:        40.0000000
  free_energy:        77.2885663
  entropy:            54.7447221
  heat_capacity:      95.1486496
  energy:             79.4783551

- temperature:        50.0000000
  free_energy:        76.6203020
  entropy:            79.0631823
  heat_capacity:     123.6453413
  energy:             80.5734612

- temperature:        60.0000000
  free_energy:        75.7051282
  entropy:           104.0478967
  heat_capacity:     151.1436622
  energy:             81.9480020

- temperature:        70.0000000
  free_energy:        74.5382287
  entropy:           129.3712730
  heat_capacity:     177.9900498
  energy:             83.5942178

- temperature:        80.0000000
  free_energy:        73.1171876
  entropy:           154.8500066
  heat_capacity:     204.0453359
  energy:             85.5051881

- temperature:        90.0000000
  free_energy:        71.4412100
  entropy:           180.3345385
  heat_capacity:     228.9595648
  energy:             87.6713184

- temperature:       100.0000000
  free_energy:        69.5109459
  entropy:           205.6847495
  heat_capacity:     252.3901471
  energy:             90.0794208

- temperature:       110.0000000
  free_energy:        67.3283916
  entropy:           230.7726175
  heat_capacity:     274.1024997
  energy:             92.7133795

- temperature:       120.0000000
  free_energy:        64.8967356
  entropy:           255.4886151
  heat_capacity:     293.9879607
  energy:             95.5553694

- temperature:       130.0000000
  free_energy:        62.2201531
  entropy:           279.7451985
  heat_capacity:     312.0429302
  energy:             98.5870289

- temperature:       140.0000000
  free_energy:        59.3035833
  entropy:           303.4769385
  heat_capacity:     328.3373726
  energy:            101.7903547

- temperature:       150.0000000
  free_energy:        56.1525170
  entropy:           326.6384697
  heat_capacity:     342.9858376
  energy:            105.1482874

- temperature:       160.0000000
  free_energy:        52.7728107
  entropy:           349.2014373
  heat_capacity:     356.1252690
  energy:            108.6450406

- temperature:       170.0000000
  free_energy:        49.1705333
  entropy:           371.1512352
  heat_capacity:     367.8997446
  energy:            112.2662433

- temperature:       180.0000000
  free_energy:        45.3518437
  entropy:           392.4839710
  heat_capacity:     378.4508364
  energy:            115.9989585

- temperature:       190.0000000
  free_energy:        41.3228974
  entropy:           413.2038468
  heat_capacity:     387.9120425
  energy:            119.8316283

- temperature:       200.0000000
  free_energy:        37.0897763
  entropy:           433.3210006
  heat_capacity:     396.4059718
  energy:            123.7539765

- temperature:       210.0000000
  free_energy:        32.6584389
  entropy:           452.8497845
  heat_capacity:     404.0432858
  energy:            127.7568937

- temperature:       220.0000000
  free_energy:        28.0346847
  entropy:           471.8074202
  heat_capacity:     410.9227038
  energy:            131.8323171

- temperature:       230.0000000
  free_energy:        23.2241309
  entropy:           490.2129693
  heat_capacity:     417.1316100
  energy:            135.9731139

- temperature:       240.0000000
  free_energy:        18.2321985
  entropy:           508.0865554
  heat_capacity:     422.7469641
  energy:            140.1729719

- temperature:       250.0000000
  free_energy:        13.0641043
  entropy:           525.4487858
  heat_capacity:     427.8363330
  energy:            144.4263008

- temperature:       260.0000000
  free_energy:         7.7248584
  entropy:           542.3203269
  heat_capacity:     432.4589343
  energy:            148.7281434

- temperature:       270.0000000
  free_energy:         2.2192653
  entropy:           558.7215995
  heat_capacity:     436.6666321
  energy:            153.0740972

- temperature:       280.0000000
  free_energy:        -3.4480726
  entropy:           574.6725632
  heat_capacity:     440.5048517
  energy:            157.4602451

- temperature:       290.0000000
  free_energy:        -9.2727495
  entropy:           590.1925702
  heat_capacity:     444.0134042
  energy:            161.8830959

- temperature:       300.0000000
  free_energy:       -15.2505497
  entropy:           605.3002697
  heat_capacity:     447.2272159
  energy:            166.3395312

- temperature:       310.0000000
  free_energy:       -21.3774403
  entropy:           620.0135505
  heat_capacity:     450.1769689
  energy:            170.8267604

- temperature:       320.0000000
  free_energy:       -27.6495631
  entropy:           634.3495119
  heat_capacity:     452.8896589
  energy:            175.3422807

- temperature:       330.0000000
  free_energy:       -34.0632272
  entropy:           648.3244551
  heat_capacity:     455.3890789
  energy:            179.8838430

- temperature:       340.0000000
  free_energy:       -40.6149006
  entropy:           661.9538890
  heat_capacity:     457.6962384
  energy:            184.4494217

- temperature:       350.0000000
  free_energy:       -47.3012025
  entropy:           675.2525473
  heat_capacity:     459.8297237
  energy:            189.0371891

- temperature:       360.0000000
  free_energy:       -54.1188956
  entropy:           688.2344111
  heat_capacity:     461.8060104
  energy:            193.6454924

- temperature:       370.0000000
  free_energy:       -61.0648790
  entropy:           700.9127384
  heat_capacity:     463.6397315
  energy:            198.2728342

- temperature:       380.0000000
  free_energy:       -68.1361806
  entropy:           713.3000945
  heat_capacity:     465.3439100
  energy:            202.9178554

- temperature:       390.0000000
  free_energy:       -75.3299507
  entropy:           725.4083851
  heat_capacity:     466.9301587
  energy:            207.5793195

- temperature:       400.0000000
  free_energy:       -82.6434557
  entropy:           737.2488896
  heat_capacity:     468.4088535
  energy:            212.2561001

- temperature:       410.0000000
  free_energy:       -90.0740716
  entropy:           748.8322943
  heat_capacity:     469.7892833
  energy:            216.9471691

- temperature:       420.0000000
  free_energy:       -97.6192784
  entropy:           760.1687251
  heat_capacity:     471.0797798
  energy:            221.6515861

- temperature:       430.0000000
  free_energy:      -105.2766549
  entropy:           771.2677787
  heat_capacity:     472.2878301
  energy:            226.3684900

- temperature:       440.0000000
  free_energy:      -113.0438731
  entropy:           782.1385535
  heat_capacity:     473.4201752
  energy:            231.0970904

- temperature:       450.0000000
  free_energy:      -120.9186938
  entropy:           792.7896784
  heat_capacity:     474.4828949
  energy:            235.8366614

- temperature:       460.0000000
  free_energy:      -128.8989618
  entropy:           803.2293402
  heat_capacity:     475.4814826
  energy:            240.5865346

- temperature:       470.0000000
  free_energy:      -136.9826017
  entropy:           813.4653099
  heat_capacity:     476.4209104
  energy:            245.3460939

- temperature:       480.0000000
  free_energy:      -145.1676137
  entropy:           823.5049675
  heat_capacity:     477.3056861
  energy:            250.1147707

- temperature:       490.0000000
  free_energy:      -153.4520701
  entropy:           833.3553251
  heat_capacity:     478.1399036
  energy:            254.8920392

- temperature:       500.0000000
  free_energy:      -161.8341115
  entropy:           843.0230483
  heat_capacity:     478.9272864
  energy:            259.6774127

- temperature:       510.0000000
  free_energy:      -170.3119435
  entropy:           852.5144776
  heat_capacity:     479.6712267
  energy:            264.4704401

- temperature:       520.0000000
  free_energy:      -178.8838335
  entropy:           861.8356467
  heat_capacity:     480.3748196
  energy:            269.2707028

- temperature:       530.0000000
  free_energy:      -187.5481080
  entropy:           870.9923010
  heat_capacity:     481.0408932
  energy:            274.0778115

- temperature:       540.0000000
  free_energy:      -196.3031494
  entropy:           879.9899142
  heat_capacity:     481.6720353
  energy:            278.8914042

- temperature:       550.0000000
  free_energy:      -205.1473936
  entropy:           888.8337041
  heat_capacity:     482.2706173
  energy:            283.7111437

- temperature:       560.0000000
  free_energy:      -214.0793274
  entropy:           897.5286477
  heat_capacity:     482.8388152
  energy:            288.5367153

- temperature:       570.0000000
  free_energy:      -223.0974863
  entropy:           906.0794941
  heat_capacity:     483.3786284
  energy:            293.3678254

- temperature:       580.0000000
  free_energy:      -232.2004521
  entropy:           914.4907784
  heat_capacity:     483.8918964
  energy:            298.2041994

- temperature:       590.0000000
  free_energy:      -241.3868511
  entropy:           922.7668332
  heat_capacity:     484.3803135
  energy:            303.0455805

- temperature:       600.0000000
  free_energy:      -250.6553518
  entropy:           930.9117998
  heat_capacity:     484.8454426
  energy:            307.8917281

- temperature:       610.0000000
  free_energy:      -260.0046633
  entropy:           938.9296391
  heat_capacity:     485.2887267
  energy:            312.7424165

- temperature:       620.0000000
  free_energy:      -269.4335335
  entropy:           946.8241415
  heat_capacity:     485.7115000
  energy:            317.5974342

- temperature:       630.0000000
  free_energy:      -278.9407472
  entropy:           954.5989356
  heat_capacity:     486.1149972
  energy:            322.4565823

- temperature:       640.0000000
  free_energy:      -288.5251248
  entropy:           962.2574977
  heat_capacity:     486.5003625
  energy:            327.3196737

- temperature:       650.0000000
  free_energy:      -298.1855208
  entropy:           969.8031591
  heat_capacity:     486.8686570
  energy:            332.1865326

- temperature:       660.0000000
  free_energy:      -307.9208223
  entropy:           977.2391145
  heat_capacity:     487.2208660
  energy:            337.0569933

- temperature:       670.0000000
  free_energy:      -317.7299476
  entropy:           984.5684284
  heat_capacity:     487.5579055
  energy:            341.9308994

- temperature:       680.0000000
  free_energy:      -327.6118452
  entropy:           991.7940424
  heat_capacity:     487.8806275
  energy:            346.8081037

- temperature:       690.0000000
  free_energy:      -337.5654922
  entropy:           998.9187813
  heat_capacity:     488.1898256
  energy:            351.6884669

- temperature:       700.0000000
  free_energy:      -347.5898936
  entropy:          1005.9453589
  heat_capacity:     488.4862395
  energy:            356.5718576

- temperature:       710.0000000
  free_energy:      -357.6840809
  entropy:          1012.8763835
  heat_capacity:     488.7705595
  energy:            361.4581514

- temperature:       720.0000000
  free_energy:      -367.8471112
  entropy:          1019.7143636
  heat_capacity:     489.0434302
  energy:            366.3472306

- temperature:       730.0000000
  free_energy:      -378.0780661
  entropy:          1026.4617122
  heat_capacity:     489.3054541
  energy:            371.2389838

- temperature:       740.0000000
  free_energy:      -388.3760511
  entropy:          1033.1207520
  heat_capacity:     489.5571948
  energy:            376.1333054

- temperature:       750.0000000
  free_energy:      -398.7401942
  entropy:          1039.6937192
  heat_capacity:     489.7991801
  energy:            381.0300952

- temperature:       760.0000000
  free_energy:      -409.1696457
  entropy:          1046.1827682
  heat_capacity:     490.0319046
  energy:            385.9292581

- temperature:       770.0000000
  free_energy:      -419.6635768
  entropy:          1052.5899750
  heat_capacity:     490.2558320
  energy:            390.8307040

- temperature:       780.0000000
  free_energy:      -430.2211791
  entropy:          1058.9173410
  heat_capacity:     490.4713976
  energy:            395.7343469

- temperature:       790.0000000
  free_energy:      -440.8416639
  entropy:          1065.1667966
  heat_capacity:     490.6790103
  energy:            400.6401054

- temperature:       800.0000000
  free_energy:      -451.5242615
  entropy:          1071.3402043
  heat_capacity:     490.8790544
  energy:            405.5479019

- temperature:       810.0000000
  free_energy:      -462.2682205
  entropy:          1077.4393617
  heat_capacity:     491.0718913
  energy:            410.4576625

- temperature:       820.0000000
  free_energy:      -473.0728071
  entropy:          1083.4660048
  heat_capacity:     491.2578614
  energy:            415.3693168

- temperature:       830.0000000
  free_energy:      -483.9373045
  entropy:          1089.4218101
  heat_capacity:     491.4372852
  energy:            420.2827979

- temperature:       840.0000000
  free_energy:      -494.8610125
  entropy:          1095.3083979
  heat_capacity:     491.6104648
  energy:            425.1980417

- temperature:       850.0000000
  free_energy:      -505.8432469
  entropy:          1101.1273344
  heat_capacity:     491.7776853
  energy:            430.1149873

- temperature:       860.0000000
  free_energy:      -516.8833388
  entropy:          1106.8801340
  heat_capacity:     491.9392156
  energy:            435.0335765

- temperature:       870.0000000
  free_energy:      -527.9806341
  entropy:          1112.5682616
  heat_capacity:     492.0953099
  energy:            439.9537535

- temperature:       880.0000000
  free_energy:      -539.1344932
  entropy:          1118.1931347
  heat_capacity:     492.2462082
  energy:            444.8754653

- temperature:       890.0000000
  free_energy:      -550.3442905
  entropy:          1123.7561254
  heat_capacity:     492.3921376
  energy:            449.7986611

- temperature:       900.0000000
  free_energy:      -561.6094138
  entropy:          1129.2585623
  heat_capacity:     492.5333130
  energy:            454.7232923

- temperature:       910.0000000
  free_energy:      -572.9292642
  entropy:          1134.7017323
  heat_capacity:     492.6699377
  energy:            459.6493122

- temperature:       920.0000000
  free_energy:      -584.3032551
  entropy:          1140.0868821
  heat_capacity:     492.8022045
  energy:            464.5766765

- temperature:       930.0000000
  free_energy:      -595.7308124
  entropy:          1145.4152203
  heat_capacity:     492.9302959
  energy:            469.5053424

- temperature:       940.0000000
  free_energy:      -607.2113740
  entropy:          1150.6879182
  heat_capacity:     493.0543853
  energy:            474.4352691

- temperature:       950.0000000
  free_energy:      -618.7443891
  entropy:          1155.9061120
  heat_capacity:     493.1746369
  energy:            479.3664173

- temperature:       960.0000000
  free_energy:      -630.3293183
  entropy:          1161.0709040
  heat_capacity:     493.2912068
  energy:            484.2987495

- temperature:       970.0000000
  free_energy:      -641.9656328
  entropy:          1166.1833633
  heat_capacity:     493.4042432
  energy:            489.2322297

- temperature:       980.0000000
  free_energy:      -653.6528146
  entropy:          1171.2445282
  heat_capacity:     493.5138869
  energy:            494.1668231

- temperature:       990.0000000
  free_energy:      -665.3903557
  entropy:          1176.2554063
  heat_capacity:     493.6202720
  energy:            499.1024965

- temperature:      1000.0000000
  free_energy:      -677.1777583
  entropy:          1181.2169764
  heat_capacity:     493.7235258
  energy:            504.0392181
