# Thermal properties / unit cell (natom)

unit:
  temperature:   K
  free_energy:   kJ/mol
  entropy:       J/K/mol
  heat_capacity: J/K/mol

natom: 4    
cutoff_frequency: 0.00000
num_modes: 120156
num_integrated_modes: 119468

zero_point_energy:       7.0674222

thermal_properties:
- temperature:         0.0000000
  free_energy:         7.0674222
  entropy:             0.0000000
  heat_capacity:       0.0000000
  energy:              7.0674222

- temperature:        10.0000000
  free_energy:         7.0530174
  entropy:             4.5028175
  heat_capacity:       9.1184847
  energy:              7.0980456

- temperature:        20.0000000
  free_energy:         6.9543801
  entropy:            15.8160940
  heat_capacity:      25.5343548
  energy:              7.2707019

- temperature:        30.0000000
  free_energy:         6.7304157
  entropy:            29.0836761
  heat_capacity:      40.3048429
  energy:              7.6029260

- temperature:        40.0000000
  free_energy:         6.3731435
  entropy:            42.2653785
  heat_capacity:      51.2737049
  energy:              8.0637587

- temperature:        50.0000000
  free_energy:         5.8879325
  entropy:            54.6187580
  heat_capacity:      59.3741841
  energy:              8.6188704

- temperature:        60.0000000
  free_energy:         5.2839537
  entropy:            66.0215221
  heat_capacity:      65.6581656
  energy:              9.2452451

- temperature:        70.0000000
  free_energy:         4.5704674
  entropy:            76.5354044
  heat_capacity:      70.7072650
  energy:              9.9279457

- temperature:        80.0000000
  free_energy:         3.7558911
  entropy:            86.2554061
  heat_capacity:      74.8328162
  energy:             10.6563236

- temperature:        90.0000000
  free_energy:         2.8477029
  entropy:            95.2719541
  heat_capacity:      78.2297462
  energy:             11.4221787

- temperature:       100.0000000
  free_energy:         1.8525313
  entropy:           103.6643511
  heat_capacity:      81.0400859
  energy:             12.2189664

- temperature:       110.0000000
  free_energy:         0.7762666
  entropy:           111.5012087
  heat_capacity:      83.3754481
  energy:             13.0413996

- temperature:       120.0000000
  free_energy:        -0.3758400
  entropy:           118.8419431
  heat_capacity:      85.3255755
  energy:             13.8851932

- temperature:       130.0000000
  free_energy:        -1.5990913
  entropy:           125.7381603
  heat_capacity:      86.9627771
  energy:             14.7468696

- temperature:       140.0000000
  free_energy:        -2.8892719
  entropy:           132.2348033
  heat_capacity:      88.3451408
  energy:             15.6236006

- temperature:       150.0000000
  free_energy:        -4.2425867
  entropy:           138.3711056
  heat_capacity:      89.5192140
  energy:             16.5130791

- temperature:       160.0000000
  free_energy:        -5.6556078
  entropy:           144.1813961
  heat_capacity:      90.5222730
  energy:             17.4134156

- temperature:       170.0000000
  free_energy:        -7.1252287
  entropy:           149.6957854
  heat_capacity:      91.3842070
  energy:             18.3230548

- temperature:       180.0000000
  free_energy:        -8.6486258
  entropy:           154.9407539
  heat_capacity:      92.1290478
  energy:             19.2407099

- temperature:       190.0000000
  free_energy:       -10.2232239
  entropy:           159.9396546
  heat_capacity:      92.7761913
  energy:             20.1653105

- temperature:       200.0000000
  free_energy:       -11.8466677
  entropy:           164.7131430
  heat_capacity:      93.3413630
  energy:             21.0959609

- temperature:       210.0000000
  free_energy:       -13.5167967
  entropy:           169.2795436
  heat_capacity:      93.8373758
  energy:             22.0319075

- temperature:       220.0000000
  free_energy:       -15.2316229
  entropy:           173.6551632
  heat_capacity:      94.2747242
  energy:             22.9725130

- temperature:       230.0000000
  free_energy:       -16.9893127
  entropy:           177.8545568
  heat_capacity:      94.6620496
  energy:             23.9172354

- temperature:       240.0000000
  free_energy:       -18.7881702
  entropy:           181.8907559
  heat_capacity:      95.0065053
  energy:             24.8656113

- temperature:       250.0000000
  free_energy:       -20.6266229
  entropy:           185.7754620
  heat_capacity:      95.3140443
  energy:             25.8172426

- temperature:       260.0000000
  free_energy:       -22.5032097
  entropy:           189.5192132
  heat_capacity:      95.5896459
  energy:             26.7717858

- temperature:       270.0000000
  free_energy:       -24.4165692
  entropy:           193.1315268
  heat_capacity:      95.8374960
  energy:             27.7289430

- temperature:       280.0000000
  free_energy:       -26.3654309
  entropy:           196.6210212
  heat_capacity:      96.0611303
  energy:             28.6884550

- temperature:       290.0000000
  free_energy:       -28.3486064
  entropy:           199.9955219
  heat_capacity:      96.2635496
  energy:             29.6500950

- temperature:       300.0000000
  free_energy:       -30.3649818
  entropy:           203.2621524
  heat_capacity:      96.4473119
  energy:             30.6136639

- temperature:       310.0000000
  free_energy:       -32.4135116
  entropy:           206.4274127
  heat_capacity:      96.6146072
  energy:             31.5789864

- temperature:       320.0000000
  free_energy:       -34.4932121
  entropy:           209.4972484
  heat_capacity:      96.7673182
  energy:             32.5459074

- temperature:       330.0000000
  free_energy:       -36.6031567
  entropy:           212.4771098
  heat_capacity:      96.9070699
  energy:             33.5142896

- temperature:       340.0000000
  free_energy:       -38.7424711
  entropy:           215.3720042
  heat_capacity:      97.0352699
  energy:             34.4840103

- temperature:       350.0000000
  free_energy:       -40.9103290
  entropy:           218.1865414
  heat_capacity:      97.1531424
  energy:             35.4549605

- temperature:       360.0000000
  free_energy:       -43.1059483
  entropy:           220.9249739
  heat_capacity:      97.2617553
  energy:             36.4270423

- temperature:       370.0000000
  free_energy:       -45.3285879
  entropy:           223.5912319
  heat_capacity:      97.3620435
  energy:             37.4001679

- temperature:       380.0000000
  free_energy:       -47.5775445
  entropy:           226.1889544
  heat_capacity:      97.4548281
  energy:             38.3742582

- temperature:       390.0000000
  free_energy:       -49.8521498
  entropy:           228.7215171
  heat_capacity:      97.5408325
  energy:             39.3492419

- temperature:       400.0000000
  free_energy:       -52.1517681
  entropy:           231.1920562
  heat_capacity:      97.6206956
  energy:             40.3250544

- temperature:       410.0000000
  free_energy:       -54.4757939
  entropy:           233.6034906
  heat_capacity:      97.6949836
  energy:             41.3016372

- temperature:       420.0000000
  free_energy:       -56.8236500
  entropy:           235.9585408
  heat_capacity:      97.7641993
  energy:             42.2789372

- temperature:       430.0000000
  free_energy:       -59.1947853
  entropy:           238.2597467
  heat_capacity:      97.8287906
  energy:             43.2569058

- temperature:       440.0000000
  free_energy:       -61.5886734
  entropy:           240.5094824
  heat_capacity:      97.8891576
  energy:             44.2354989

- temperature:       450.0000000
  free_energy:       -64.0048108
  entropy:           242.7099708
  heat_capacity:      97.9456580
  energy:             45.2146761

- temperature:       460.0000000
  free_energy:       -66.4427156
  entropy:           244.8632953
  heat_capacity:      97.9986131
  energy:             46.1944002

- temperature:       470.0000000
  free_energy:       -68.9019260
  entropy:           246.9714117
  heat_capacity:      98.0483113
  energy:             47.1746375

- temperature:       480.0000000
  free_energy:       -71.3819993
  entropy:           249.0361578
  heat_capacity:      98.0950128
  energy:             48.1553565

- temperature:       490.0000000
  free_energy:       -73.8825104
  entropy:           251.0592631
  heat_capacity:      98.1389522
  energy:             49.1365285

- temperature:       500.0000000
  free_energy:       -76.4030512
  entropy:           253.0423564
  heat_capacity:      98.1803420
  energy:             50.1181270

- temperature:       510.0000000
  free_energy:       -78.9432293
  entropy:           254.9869741
  heat_capacity:      98.2193746
  energy:             51.1001275

- temperature:       520.0000000
  free_energy:       -81.5026672
  entropy:           256.8945663
  heat_capacity:      98.2562247
  energy:             52.0825073

- temperature:       530.0000000
  free_energy:       -84.0810017
  entropy:           258.7665038
  heat_capacity:      98.2910511
  energy:             53.0652453

- temperature:       540.0000000
  free_energy:       -86.6778828
  entropy:           260.6040830
  heat_capacity:      98.3239988
  energy:             54.0483220

- temperature:       550.0000000
  free_energy:       -89.2929730
  entropy:           262.4085316
  heat_capacity:      98.3551997
  energy:             55.0317194

- temperature:       560.0000000
  free_energy:       -91.9259469
  entropy:           264.1810133
  heat_capacity:      98.3847747
  energy:             56.0154206

- temperature:       570.0000000
  free_energy:       -94.5764904
  entropy:           265.9226320
  heat_capacity:      98.4128343
  energy:             56.9994099

- temperature:       580.0000000
  free_energy:       -97.2443001
  entropy:           267.6344357
  heat_capacity:      98.4394798
  energy:             57.9836726

- temperature:       590.0000000
  free_energy:       -99.9290830
  entropy:           269.3174205
  heat_capacity:      98.4648043
  energy:             58.9681951

- temperature:       600.0000000
  free_energy:      -102.6305556
  entropy:           270.9725336
  heat_capacity:      98.4888934
  energy:             59.9529645

- temperature:       610.0000000
  free_energy:      -105.3484438
  entropy:           272.6006768
  heat_capacity:      98.5118259
  energy:             60.9379691

- temperature:       620.0000000
  free_energy:      -108.0824822
  entropy:           274.2027090
  heat_capacity:      98.5336742
  energy:             61.9231974

- temperature:       630.0000000
  free_energy:      -110.8324137
  entropy:           275.7794490
  heat_capacity:      98.5545055
  energy:             62.9086392

- temperature:       640.0000000
  free_energy:      -113.5979894
  entropy:           277.3316778
  heat_capacity:      98.5743817
  energy:             63.8942844

- temperature:       650.0000000
  free_energy:      -116.3789680
  entropy:           278.8601413
  heat_capacity:      98.5933602
  energy:             64.8801238

- temperature:       660.0000000
  free_energy:      -119.1751154
  entropy:           280.3655518
  heat_capacity:      98.6114939
  energy:             65.8661488

- temperature:       670.0000000
  free_energy:      -121.9862045
  entropy:           281.8485903
  heat_capacity:      98.6288321
  energy:             66.8523510

- temperature:       680.0000000
  free_energy:      -124.8120148
  entropy:           283.3099084
  heat_capacity:      98.6454206
  energy:             67.8387229

- temperature:       690.0000000
  free_energy:      -127.6523323
  entropy:           284.7501296
  heat_capacity:      98.6613018
  energy:             68.8252571

- temperature:       700.0000000
  free_energy:      -130.5069491
  entropy:           286.1698511
  heat_capacity:      98.6765153
  energy:             69.8119467

- temperature:       710.0000000
  free_energy:      -133.3756629
  entropy:           287.5696454
  heat_capacity:      98.6910978
  energy:             70.7987853

- temperature:       720.0000000
  free_energy:      -136.2582774
  entropy:           288.9500612
  heat_capacity:      98.7050837
  energy:             71.7857667

- temperature:       730.0000000
  free_energy:      -139.1546013
  entropy:           290.3116252
  heat_capacity:      98.7185051
  energy:             72.7728851

- temperature:       740.0000000
  free_energy:      -142.0644488
  entropy:           291.6548429
  heat_capacity:      98.7313917
  energy:             73.7601350

- temperature:       750.0000000
  free_energy:      -144.9876387
  entropy:           292.9801998
  heat_capacity:      98.7437716
  energy:             74.7475112

- temperature:       760.0000000
  free_energy:      -147.9239948
  entropy:           294.2881626
  heat_capacity:      98.7556709
  energy:             75.7350088

- temperature:       770.0000000
  free_energy:      -150.8733454
  entropy:           295.5791799
  heat_capacity:      98.7671141
  energy:             76.7226231

- temperature:       780.0000000
  free_energy:      -153.8355233
  entropy:           296.8536833
  heat_capacity:      98.7781243
  energy:             77.7103497

- temperature:       790.0000000
  free_energy:      -156.8103654
  entropy:           298.1120882
  heat_capacity:      98.7887228
  energy:             78.6981842

- temperature:       800.0000000
  free_energy:      -159.7977128
  entropy:           299.3547945
  heat_capacity:      98.7989300
  energy:             79.6861228

- temperature:       810.0000000
  free_energy:      -162.7974103
  entropy:           300.5821875
  heat_capacity:      98.8087648
  energy:             80.6741616

- temperature:       820.0000000
  free_energy:      -165.8093067
  entropy:           301.7946386
  heat_capacity:      98.8182450
  energy:             81.6622969

- temperature:       830.0000000
  free_energy:      -168.8332544
  entropy:           302.9925058
  heat_capacity:      98.8273876
  energy:             82.6505254

- temperature:       840.0000000
  free_energy:      -171.8691094
  entropy:           304.1761345
  heat_capacity:      98.8362082
  energy:             83.6388436

- temperature:       850.0000000
  free_energy:      -174.9167308
  entropy:           305.3458580
  heat_capacity:      98.8447219
  energy:             84.6272485

- temperature:       860.0000000
  free_energy:      -177.9759812
  entropy:           306.5019980
  heat_capacity:      98.8529426
  energy:             85.6157371

- temperature:       870.0000000
  free_energy:      -181.0467265
  entropy:           307.6448654
  heat_capacity:      98.8608837
  energy:             86.6043064

- temperature:       880.0000000
  free_energy:      -184.1288353
  entropy:           308.7747604
  heat_capacity:      98.8685575
  energy:             87.5929539

- temperature:       890.0000000
  free_energy:      -187.2221794
  entropy:           309.8919732
  heat_capacity:      98.8759761
  energy:             88.5816767

- temperature:       900.0000000
  free_energy:      -190.3266334
  entropy:           310.9967844
  heat_capacity:      98.8831505
  energy:             89.5704726

- temperature:       910.0000000
  free_energy:      -193.4420747
  entropy:           312.0894656
  heat_capacity:      98.8900914
  energy:             90.5593390

- temperature:       920.0000000
  free_energy:      -196.5683832
  entropy:           313.1702792
  heat_capacity:      98.8968087
  energy:             91.5482736

- temperature:       930.0000000
  free_energy:      -199.7054416
  entropy:           314.2394796
  heat_capacity:      98.9033119
  energy:             92.5372744

- temperature:       940.0000000
  free_energy:      -202.8531349
  entropy:           315.2973129
  heat_capacity:      98.9096101
  energy:             93.5263392

- temperature:       950.0000000
  free_energy:      -206.0113507
  entropy:           316.3440176
  heat_capacity:      98.9157117
  energy:             94.5154660

- temperature:       960.0000000
  free_energy:      -209.1799789
  entropy:           317.3798247
  heat_capacity:      98.9216248
  energy:             95.5046528

- temperature:       970.0000000
  free_energy:      -212.3589116
  entropy:           318.4049583
  heat_capacity:      98.9273571
  energy:             96.4938979

- temperature:       980.0000000
  free_energy:      -215.5480432
  entropy:           319.4196353
  heat_capacity:      98.9329158
  energy:             97.4831994

- temperature:       990.0000000
  free_energy:      -218.7472702
  entropy:           320.4240665
  heat_capacity:      98.9383080
  energy:             98.4725556

- temperature:      1000.0000000
  free_energy:      -221.9564911
  entropy:           321.4184561
  heat_capacity:      98.9435401
  energy:             99.4619650
