phonopy:
  version: "2.37.1"
  frequency_unit_conversion_factor: 15.633302
  symmetry_tolerance: 1.00000e-05

space_group:
  type: "P1"
  number: 1
  Hall_symbol: "P 1"

primitive_matrix:
- [ -1.000000000000000, -0.000000000000000, -0.000000000000000 ]
- [  0.000000000000000,  0.000000000000000, -1.000000000000000 ]
- [  0.000000000000000, -1.000000000000000,  0.000000000000000 ]

supercell_matrix:
- [   3,   0,   0 ]
- [   0,   2,   0 ]
- [   0,   0,   2 ]

primitive_cell:
  lattice:
  - [    -4.792436545508066,     0.000000000000000,     0.000000000000000 ] # a
  - [     2.396159721747749,     1.058421566815494,    -4.663993374931135 ] # b
  - [     0.000995490195274,    -7.755204761784043,     0.000000000000000 ] # c
  points:
  - symbol: Li # 1
    coordinates: [  0.352221486780677,  0.346697291269674,  0.265879796677404 ]
    mass: 6.940000
  - symbol: Li # 2
    coordinates: [  0.245915819966350,  0.134140629811521,  0.618767130745642 ]
    mass: 6.940000
  - symbol: Li # 3
    coordinates: [  0.471514683402162,  0.585245203779911,  0.952698503170623 ]
    mass: 6.940000
  - symbol: Li # 4
    coordinates: [  0.019187542102047,  0.680581541586965,  0.301067966937474 ]
    mass: 6.940000
  - symbol: Li # 5
    coordinates: [  0.899853597509140,  0.442006797091349,  0.614244033879241 ]
    mass: 6.940000
  - symbol: Li # 6
    coordinates: [  0.125453229892633,  0.893126986667171,  0.948184556714144 ]
    mass: 6.940000
  - symbol: Sn # 7
    coordinates: [  0.807022231350525,  0.256263950737628,  0.950277275998281 ]
    mass: 118.710000
  - symbol: Sn # 8
    coordinates: [  0.685699399005901,  0.013630732972950,  0.283467825552374 ]
    mass: 118.710000
  - symbol: Sn # 9
    coordinates: [  0.564353143878436,  0.771007038043168,  0.616669645821022 ]
    mass: 118.710000
  reciprocal_lattice: # without 2pi
  - [    -0.208662126353514,    -0.000026784734548,    -0.107207727791984 ] # a*
  - [    -0.000000000000000,    -0.000000000000000,    -0.214408537836906 ] # b*
  - [    -0.000000000000000,    -0.128945660458610,    -0.029262234528512 ] # c*

unit_cell:
  lattice:
  - [     4.792436545508067,     0.000000000000000,     0.000000000000000 ] # a
  - [    -0.000995490195274,     7.755204761784043,     0.000000000000000 ] # b
  - [    -2.396159721747749,    -1.058421566815494,     4.663993374931134 ] # c
  points:
  - symbol: Li # 1
    coordinates: [  0.647778513219323,  0.734120203322596,  0.653302708730326 ]
    mass: 6.940000
    reduced_to: 1
  - symbol: Li # 2
    coordinates: [  0.754084180033651,  0.381232869254358,  0.865859370188479 ]
    mass: 6.940000
    reduced_to: 2
  - symbol: Li # 3
    coordinates: [  0.528485316597838,  0.047301496829377,  0.414754796220089 ]
    mass: 6.940000
    reduced_to: 3
  - symbol: Li # 4
    coordinates: [  0.980812457897953,  0.698932033062526,  0.319418458413035 ]
    mass: 6.940000
    reduced_to: 4
  - symbol: Li # 5
    coordinates: [  0.100146402490860,  0.385755966120759,  0.557993202908652 ]
    mass: 6.940000
    reduced_to: 5
  - symbol: Li # 6
    coordinates: [  0.874546770107367,  0.051815443285856,  0.106873013332829 ]
    mass: 6.940000
    reduced_to: 6
  - symbol: Sn # 7
    coordinates: [  0.192977768649475,  0.049722724001719,  0.743736049262372 ]
    mass: 118.710000
    reduced_to: 7
  - symbol: Sn # 8
    coordinates: [  0.314300600994099,  0.716532174447626,  0.986369267027050 ]
    mass: 118.710000
    reduced_to: 8
  - symbol: Sn # 9
    coordinates: [  0.435646856121564,  0.383330354178978,  0.228992961956832 ]
    mass: 118.710000
    reduced_to: 9

supercell:
  lattice:
  - [    14.377309636524199,     0.000000000000000,     0.000000000000000 ] # a
  - [    -0.001990980390548,    15.510409523568086,     0.000000000000000 ] # b
  - [    -4.792319443495499,    -2.116843133630988,     9.327986749862268 ] # c
  points:
  - symbol: Li # 1
    coordinates: [  0.215926171073108,  0.367060101661298,  0.326651354365163 ]
    mass: 6.940000
    reduced_to: 1
  - symbol: Li # 2
    coordinates: [  0.549259504406441,  0.367060101661298,  0.326651354365163 ]
    mass: 6.940000
    reduced_to: 1
  - symbol: Li # 3
    coordinates: [  0.882592837739774,  0.367060101661298,  0.326651354365163 ]
    mass: 6.940000
    reduced_to: 1
  - symbol: Li # 4
    coordinates: [  0.215926171073108,  0.867060101661298,  0.326651354365163 ]
    mass: 6.940000
    reduced_to: 1
  - symbol: Li # 5
    coordinates: [  0.549259504406441,  0.867060101661298,  0.326651354365163 ]
    mass: 6.940000
    reduced_to: 1
  - symbol: Li # 6
    coordinates: [  0.882592837739774,  0.867060101661298,  0.326651354365163 ]
    mass: 6.940000
    reduced_to: 1
  - symbol: Li # 7
    coordinates: [  0.215926171073108,  0.367060101661298,  0.826651354365163 ]
    mass: 6.940000
    reduced_to: 1
  - symbol: Li # 8
    coordinates: [  0.549259504406441,  0.367060101661298,  0.826651354365163 ]
    mass: 6.940000
    reduced_to: 1
  - symbol: Li # 9
    coordinates: [  0.882592837739774,  0.367060101661298,  0.826651354365163 ]
    mass: 6.940000
    reduced_to: 1
  - symbol: Li # 10
    coordinates: [  0.215926171073108,  0.867060101661298,  0.826651354365163 ]
    mass: 6.940000
    reduced_to: 1
  - symbol: Li # 11
    coordinates: [  0.549259504406441,  0.867060101661298,  0.826651354365163 ]
    mass: 6.940000
    reduced_to: 1
  - symbol: Li # 12
    coordinates: [  0.882592837739774,  0.867060101661298,  0.826651354365163 ]
    mass: 6.940000
    reduced_to: 1
  - symbol: Li # 13
    coordinates: [  0.251361393344550,  0.190616434627179,  0.432929685094240 ]
    mass: 6.940000
    reduced_to: 13
  - symbol: Li # 14
    coordinates: [  0.584694726677883,  0.190616434627179,  0.432929685094240 ]
    mass: 6.940000
    reduced_to: 13
  - symbol: Li # 15
    coordinates: [  0.918028060011217,  0.190616434627179,  0.432929685094240 ]
    mass: 6.940000
    reduced_to: 13
  - symbol: Li # 16
    coordinates: [  0.251361393344550,  0.690616434627179,  0.432929685094240 ]
    mass: 6.940000
    reduced_to: 13
  - symbol: Li # 17
    coordinates: [  0.584694726677883,  0.690616434627179,  0.432929685094240 ]
    mass: 6.940000
    reduced_to: 13
  - symbol: Li # 18
    coordinates: [  0.918028060011217,  0.690616434627179,  0.432929685094240 ]
    mass: 6.940000
    reduced_to: 13
  - symbol: Li # 19
    coordinates: [  0.251361393344550,  0.190616434627179,  0.932929685094240 ]
    mass: 6.940000
    reduced_to: 13
  - symbol: Li # 20
    coordinates: [  0.584694726677883,  0.190616434627179,  0.932929685094240 ]
    mass: 6.940000
    reduced_to: 13
  - symbol: Li # 21
    coordinates: [  0.918028060011217,  0.190616434627179,  0.932929685094240 ]
    mass: 6.940000
    reduced_to: 13
  - symbol: Li # 22
    coordinates: [  0.251361393344550,  0.690616434627179,  0.932929685094240 ]
    mass: 6.940000
    reduced_to: 13
  - symbol: Li # 23
    coordinates: [  0.584694726677883,  0.690616434627179,  0.932929685094240 ]
    mass: 6.940000
    reduced_to: 13
  - symbol: Li # 24
    coordinates: [  0.918028060011217,  0.690616434627179,  0.932929685094240 ]
    mass: 6.940000
    reduced_to: 13
  - symbol: Li # 25
    coordinates: [  0.176161772199279,  0.023650748414688,  0.207377398110045 ]
    mass: 6.940000
    reduced_to: 25
  - symbol: Li # 26
    coordinates: [  0.509495105532613,  0.023650748414688,  0.207377398110045 ]
    mass: 6.940000
    reduced_to: 25
  - symbol: Li # 27
    coordinates: [  0.842828438865946,  0.023650748414688,  0.207377398110045 ]
    mass: 6.940000
    reduced_to: 25
  - symbol: Li # 28
    coordinates: [  0.176161772199279,  0.523650748414689,  0.207377398110045 ]
    mass: 6.940000
    reduced_to: 25
  - symbol: Li # 29
    coordinates: [  0.509495105532613,  0.523650748414689,  0.207377398110045 ]
    mass: 6.940000
    reduced_to: 25
  - symbol: Li # 30
    coordinates: [  0.842828438865946,  0.523650748414689,  0.207377398110045 ]
    mass: 6.940000
    reduced_to: 25
  - symbol: Li # 31
    coordinates: [  0.176161772199279,  0.023650748414688,  0.707377398110045 ]
    mass: 6.940000
    reduced_to: 25
  - symbol: Li # 32
    coordinates: [  0.509495105532613,  0.023650748414688,  0.707377398110045 ]
    mass: 6.940000
    reduced_to: 25
  - symbol: Li # 33
    coordinates: [  0.842828438865946,  0.023650748414688,  0.707377398110045 ]
    mass: 6.940000
    reduced_to: 25
  - symbol: Li # 34
    coordinates: [  0.176161772199279,  0.523650748414689,  0.707377398110045 ]
    mass: 6.940000
    reduced_to: 25
  - symbol: Li # 35
    coordinates: [  0.509495105532613,  0.523650748414689,  0.707377398110045 ]
    mass: 6.940000
    reduced_to: 25
  - symbol: Li # 36
    coordinates: [  0.842828438865946,  0.523650748414689,  0.707377398110045 ]
    mass: 6.940000
    reduced_to: 25
  - symbol: Li # 37
    coordinates: [  0.326937485965984,  0.349466016531263,  0.159709229206517 ]
    mass: 6.940000
    reduced_to: 37
  - symbol: Li # 38
    coordinates: [  0.660270819299318,  0.349466016531263,  0.159709229206517 ]
    mass: 6.940000
    reduced_to: 37
  - symbol: Li # 39
    coordinates: [  0.993604152632651,  0.349466016531263,  0.159709229206517 ]
    mass: 6.940000
    reduced_to: 37
  - symbol: Li # 40
    coordinates: [  0.326937485965984,  0.849466016531263,  0.159709229206517 ]
    mass: 6.940000
    reduced_to: 37
  - symbol: Li # 41
    coordinates: [  0.660270819299318,  0.849466016531263,  0.159709229206517 ]
    mass: 6.940000
    reduced_to: 37
  - symbol: Li # 42
    coordinates: [  0.993604152632651,  0.849466016531263,  0.159709229206517 ]
    mass: 6.940000
    reduced_to: 37
  - symbol: Li # 43
    coordinates: [  0.326937485965984,  0.349466016531263,  0.659709229206517 ]
    mass: 6.940000
    reduced_to: 37
  - symbol: Li # 44
    coordinates: [  0.660270819299318,  0.349466016531263,  0.659709229206517 ]
    mass: 6.940000
    reduced_to: 37
  - symbol: Li # 45
    coordinates: [  0.993604152632651,  0.349466016531263,  0.659709229206517 ]
    mass: 6.940000
    reduced_to: 37
  - symbol: Li # 46
    coordinates: [  0.326937485965984,  0.849466016531263,  0.659709229206517 ]
    mass: 6.940000
    reduced_to: 37
  - symbol: Li # 47
    coordinates: [  0.660270819299318,  0.849466016531263,  0.659709229206517 ]
    mass: 6.940000
    reduced_to: 37
  - symbol: Li # 48
    coordinates: [  0.993604152632651,  0.849466016531263,  0.659709229206517 ]
    mass: 6.940000
    reduced_to: 37
  - symbol: Li # 49
    coordinates: [  0.033382134163620,  0.192877983060379,  0.278996601454326 ]
    mass: 6.940000
    reduced_to: 49
  - symbol: Li # 50
    coordinates: [  0.366715467496953,  0.192877983060379,  0.278996601454326 ]
    mass: 6.940000
    reduced_to: 49
  - symbol: Li # 51
    coordinates: [  0.700048800830287,  0.192877983060379,  0.278996601454326 ]
    mass: 6.940000
    reduced_to: 49
  - symbol: Li # 52
    coordinates: [  0.033382134163620,  0.692877983060380,  0.278996601454326 ]
    mass: 6.940000
    reduced_to: 49
  - symbol: Li # 53
    coordinates: [  0.366715467496953,  0.692877983060380,  0.278996601454326 ]
    mass: 6.940000
    reduced_to: 49
  - symbol: Li # 54
    coordinates: [  0.700048800830287,  0.692877983060380,  0.278996601454326 ]
    mass: 6.940000
    reduced_to: 49
  - symbol: Li # 55
    coordinates: [  0.033382134163620,  0.192877983060379,  0.778996601454326 ]
    mass: 6.940000
    reduced_to: 49
  - symbol: Li # 56
    coordinates: [  0.366715467496953,  0.192877983060379,  0.778996601454326 ]
    mass: 6.940000
    reduced_to: 49
  - symbol: Li # 57
    coordinates: [  0.700048800830287,  0.192877983060379,  0.778996601454326 ]
    mass: 6.940000
    reduced_to: 49
  - symbol: Li # 58
    coordinates: [  0.033382134163620,  0.692877983060380,  0.778996601454326 ]
    mass: 6.940000
    reduced_to: 49
  - symbol: Li # 59
    coordinates: [  0.366715467496953,  0.692877983060380,  0.778996601454326 ]
    mass: 6.940000
    reduced_to: 49
  - symbol: Li # 60
    coordinates: [  0.700048800830287,  0.692877983060380,  0.778996601454326 ]
    mass: 6.940000
    reduced_to: 49
  - symbol: Li # 61
    coordinates: [  0.291515590035789,  0.025907721642928,  0.053436506666414 ]
    mass: 6.940000
    reduced_to: 61
  - symbol: Li # 62
    coordinates: [  0.624848923369122,  0.025907721642928,  0.053436506666414 ]
    mass: 6.940000
    reduced_to: 61
  - symbol: Li # 63
    coordinates: [  0.958182256702456,  0.025907721642928,  0.053436506666414 ]
    mass: 6.940000
    reduced_to: 61
  - symbol: Li # 64
    coordinates: [  0.291515590035789,  0.525907721642928,  0.053436506666414 ]
    mass: 6.940000
    reduced_to: 61
  - symbol: Li # 65
    coordinates: [  0.624848923369122,  0.525907721642928,  0.053436506666414 ]
    mass: 6.940000
    reduced_to: 61
  - symbol: Li # 66
    coordinates: [  0.958182256702456,  0.525907721642928,  0.053436506666414 ]
    mass: 6.940000
    reduced_to: 61
  - symbol: Li # 67
    coordinates: [  0.291515590035789,  0.025907721642928,  0.553436506666414 ]
    mass: 6.940000
    reduced_to: 61
  - symbol: Li # 68
    coordinates: [  0.624848923369122,  0.025907721642928,  0.553436506666414 ]
    mass: 6.940000
    reduced_to: 61
  - symbol: Li # 69
    coordinates: [  0.958182256702456,  0.025907721642928,  0.553436506666414 ]
    mass: 6.940000
    reduced_to: 61
  - symbol: Li # 70
    coordinates: [  0.291515590035789,  0.525907721642928,  0.553436506666414 ]
    mass: 6.940000
    reduced_to: 61
  - symbol: Li # 71
    coordinates: [  0.624848923369122,  0.525907721642928,  0.553436506666414 ]
    mass: 6.940000
    reduced_to: 61
  - symbol: Li # 72
    coordinates: [  0.958182256702456,  0.525907721642928,  0.553436506666414 ]
    mass: 6.940000
    reduced_to: 61
  - symbol: Sn # 73
    coordinates: [  0.064325922883158,  0.024861362000859,  0.371868024631186 ]
    mass: 118.710000
    reduced_to: 73
  - symbol: Sn # 74
    coordinates: [  0.397659256216492,  0.024861362000859,  0.371868024631186 ]
    mass: 118.710000
    reduced_to: 73
  - symbol: Sn # 75
    coordinates: [  0.730992589549825,  0.024861362000859,  0.371868024631186 ]
    mass: 118.710000
    reduced_to: 73
  - symbol: Sn # 76
    coordinates: [  0.064325922883158,  0.524861362000859,  0.371868024631186 ]
    mass: 118.710000
    reduced_to: 73
  - symbol: Sn # 77
    coordinates: [  0.397659256216492,  0.524861362000859,  0.371868024631186 ]
    mass: 118.710000
    reduced_to: 73
  - symbol: Sn # 78
    coordinates: [  0.730992589549825,  0.524861362000859,  0.371868024631186 ]
    mass: 118.710000
    reduced_to: 73
  - symbol: Sn # 79
    coordinates: [  0.064325922883158,  0.024861362000859,  0.871868024631186 ]
    mass: 118.710000
    reduced_to: 73
  - symbol: Sn # 80
    coordinates: [  0.397659256216492,  0.024861362000859,  0.871868024631186 ]
    mass: 118.710000
    reduced_to: 73
  - symbol: Sn # 81
    coordinates: [  0.730992589549825,  0.024861362000859,  0.871868024631186 ]
    mass: 118.710000
    reduced_to: 73
  - symbol: Sn # 82
    coordinates: [  0.064325922883158,  0.524861362000859,  0.871868024631186 ]
    mass: 118.710000
    reduced_to: 73
  - symbol: Sn # 83
    coordinates: [  0.397659256216492,  0.524861362000859,  0.871868024631186 ]
    mass: 118.710000
    reduced_to: 73
  - symbol: Sn # 84
    coordinates: [  0.730992589549825,  0.524861362000859,  0.871868024631186 ]
    mass: 118.710000
    reduced_to: 73
  - symbol: Sn # 85
    coordinates: [  0.104766866998033,  0.358266087223813,  0.493184633513525 ]
    mass: 118.710000
    reduced_to: 85
  - symbol: Sn # 86
    coordinates: [  0.438100200331366,  0.358266087223813,  0.493184633513525 ]
    mass: 118.710000
    reduced_to: 85
  - symbol: Sn # 87
    coordinates: [  0.771433533664700,  0.358266087223813,  0.493184633513525 ]
    mass: 118.710000
    reduced_to: 85
  - symbol: Sn # 88
    coordinates: [  0.104766866998033,  0.858266087223813,  0.493184633513525 ]
    mass: 118.710000
    reduced_to: 85
  - symbol: Sn # 89
    coordinates: [  0.438100200331366,  0.858266087223813,  0.493184633513525 ]
    mass: 118.710000
    reduced_to: 85
  - symbol: Sn # 90
    coordinates: [  0.771433533664700,  0.858266087223813,  0.493184633513525 ]
    mass: 118.710000
    reduced_to: 85
  - symbol: Sn # 91
    coordinates: [  0.104766866998033,  0.358266087223813,  0.993184633513525 ]
    mass: 118.710000
    reduced_to: 85
  - symbol: Sn # 92
    coordinates: [  0.438100200331366,  0.358266087223813,  0.993184633513525 ]
    mass: 118.710000
    reduced_to: 85
  - symbol: Sn # 93
    coordinates: [  0.771433533664700,  0.358266087223813,  0.993184633513525 ]
    mass: 118.710000
    reduced_to: 85
  - symbol: Sn # 94
    coordinates: [  0.104766866998033,  0.858266087223813,  0.993184633513525 ]
    mass: 118.710000
    reduced_to: 85
  - symbol: Sn # 95
    coordinates: [  0.438100200331366,  0.858266087223813,  0.993184633513525 ]
    mass: 118.710000
    reduced_to: 85
  - symbol: Sn # 96
    coordinates: [  0.771433533664700,  0.858266087223813,  0.993184633513525 ]
    mass: 118.710000
    reduced_to: 85
  - symbol: Sn # 97
    coordinates: [  0.145215618707188,  0.191665177089489,  0.114496480978416 ]
    mass: 118.710000
    reduced_to: 97
  - symbol: Sn # 98
    coordinates: [  0.478548952040521,  0.191665177089489,  0.114496480978416 ]
    mass: 118.710000
    reduced_to: 97
  - symbol: Sn # 99
    coordinates: [  0.811882285373855,  0.191665177089489,  0.114496480978416 ]
    mass: 118.710000
    reduced_to: 97
  - symbol: Sn # 100
    coordinates: [  0.145215618707188,  0.691665177089489,  0.114496480978416 ]
    mass: 118.710000
    reduced_to: 97
  - symbol: Sn # 101
    coordinates: [  0.478548952040521,  0.691665177089489,  0.114496480978416 ]
    mass: 118.710000
    reduced_to: 97
  - symbol: Sn # 102
    coordinates: [  0.811882285373855,  0.691665177089489,  0.114496480978416 ]
    mass: 118.710000
    reduced_to: 97
  - symbol: Sn # 103
    coordinates: [  0.145215618707188,  0.191665177089489,  0.614496480978416 ]
    mass: 118.710000
    reduced_to: 97
  - symbol: Sn # 104
    coordinates: [  0.478548952040521,  0.191665177089489,  0.614496480978416 ]
    mass: 118.710000
    reduced_to: 97
  - symbol: Sn # 105
    coordinates: [  0.811882285373855,  0.191665177089489,  0.614496480978416 ]
    mass: 118.710000
    reduced_to: 97
  - symbol: Sn # 106
    coordinates: [  0.145215618707188,  0.691665177089489,  0.614496480978416 ]
    mass: 118.710000
    reduced_to: 97
  - symbol: Sn # 107
    coordinates: [  0.478548952040521,  0.691665177089489,  0.614496480978416 ]
    mass: 118.710000
    reduced_to: 97
  - symbol: Sn # 108
    coordinates: [  0.811882285373855,  0.691665177089489,  0.614496480978416 ]
    mass: 118.710000
    reduced_to: 97

displacements:
- atom:    1
  displacement:
    [   0.0100000000000000,  0.0000000000000000,  0.0000000000000000 ]
  forces:
  - [  -0.0258174948394299, -0.0019971746951342,  0.0013446845114231 ]
  - [  -0.0005565228639171, -0.0020350571721792,  0.0018331743776798 ]
  - [  -0.0005373156163841, -0.0020548133179545,  0.0012146756052971 ]
  - [  -0.0001022928336170, -0.0020457264035940,  0.0015222765505314 ]
  - [  -0.0000963719212450, -0.0020513357594609,  0.0015234239399433 ]
  - [  -0.0000961042533163, -0.0020388336852193,  0.0015223957598209 ]
  - [   0.0003178102197126, -0.0020115934312344,  0.0017442479729652 ]
  - [   0.0000413212110288, -0.0020384993404150,  0.0011565461754799 ]
  - [   0.0000434531029896, -0.0020873211324215,  0.0016645230352879 ]
  - [  -0.0000999928452075, -0.0020482363179326,  0.0015216618776321 ]
  - [  -0.0000992392961052, -0.0020415605977178,  0.0015257261693478 ]
  - [  -0.0000977411109488, -0.0020460505038500,  0.0015236325562000 ]
  - [  -0.0001685031456873, -0.0192823987454176,  0.0359445735812187 ]
  - [   0.0000028091017157, -0.0192853398621082,  0.0359854586422443 ]
  - [   0.0000019290018827, -0.0192776378244162,  0.0359061509370804 ]
  - [  -0.0000955829746090, -0.0192799288779497,  0.0359462797641754 ]
  - [  -0.0001596541260369, -0.0194112211465836,  0.0359261408448219 ]
  - [  -0.0001552708563395, -0.0191525332629681,  0.0359661057591438 ]
  - [   0.0000751992556616, -0.0192186199128628,  0.0360002703964710 ]
  - [  -0.0000403656667913, -0.0192665532231331,  0.0359355881810188 ]
  - [   0.0000886526177055, -0.0193486288189888,  0.0359133034944534 ]
  - [  -0.0000159795417858, -0.0192750766873360,  0.0359408482909203 ]
  - [  -0.0000180326969712, -0.0192797146737576,  0.0359469205141068 ]
  - [  -0.0000185755889106, -0.0192871689796448,  0.0359508618712425 ]
  - [  -0.0000053359981393,  0.0081162787973881, -0.0099762678146362 ]
  - [   0.0000118633179227,  0.0081409104168415, -0.0099674463272095 ]
  - [   0.0000138043833431,  0.0080876611173153, -0.0099841728806496 ]
  - [  -0.0004900319036096,  0.0080953314900398, -0.0099706277251244 ]
  - [  -0.0000336931843776,  0.0081577301025391, -0.0098729357123375 ]
  - [  -0.0000357812969014,  0.0080720670521259, -0.0100735425949097 ]
  - [   0.0000271795288427,  0.0081230774521828, -0.0099869146943092 ]
  - [   0.0000273010082310,  0.0081036984920502, -0.0099666863679886 ]
  - [   0.0000275488273473,  0.0081133842468262, -0.0099735781550407 ]
  - [   0.0001150296011474,  0.0084747597575188, -0.0095847025513649 ]
  - [   0.0001291082444368,  0.0077556706964970, -0.0103795081377029 ]
  - [   0.0000046473323891,  0.0081103444099426, -0.0099667683243752 ]
  - [   0.0043517816811800,  0.0021258173510432, -0.0043424740433693 ]
  - [   0.0000471901148558,  0.0020186975598335, -0.0014358423650265 ]
  - [   0.0043054786510766,  0.0019172402098775,  0.0014220997691154 ]
  - [   0.0001084450632334,  0.0020081996917725, -0.0014307945966721 ]
  - [   0.0001074615865946,  0.0020171776413918, -0.0014328658580780 ]
  - [   0.0001080607762560,  0.0020252848044038, -0.0014361850917339 ]
  - [   0.0000357404351234,  0.0020133424550295, -0.0014275945723057 ]
  - [  -0.0003553032875061,  0.0021012108772993, -0.0017076395452023 ]
  - [  -0.0004317350685596,  0.0019322820007801, -0.0011571906507015 ]
  - [   0.0001180712133646,  0.0020182132720947, -0.0014330483973026 ]
  - [   0.0001044105738401,  0.0020027570426464, -0.0014414861798286 ]
  - [   0.0001059547066689,  0.0020301844924688, -0.0014267563819885 ]
  - [   0.0001696223625913, -0.0081308446824551,  0.0100168064236641 ]
  - [   0.0001720137079246, -0.0080217458307743,  0.0096911042928696 ]
  - [   0.0000053171524996, -0.0080771297216415,  0.0098542794585228 ]
  - [   0.0001207579407492, -0.0083191953599453,  0.0098794847726822 ]
  - [   0.0001210607151734, -0.0078346021473408,  0.0098237097263336 ]
  - [   0.0000020695006242, -0.0080775059759617,  0.0098513141274452 ]
  - [  -0.0000470461018267, -0.0081025287508965,  0.0098838508129120 ]
  - [   0.0000749416649342, -0.0080644749104977,  0.0098500102758408 ]
  - [  -0.0000009173527360, -0.0080641619861126,  0.0098256915807724 ]
  - [   0.0000312461052090, -0.0080908760428429,  0.0098515003919601 ]
  - [  -0.0000173287698999, -0.0080743208527565,  0.0098505392670631 ]
  - [   0.0000298024388030, -0.0080662705004215,  0.0098523348569870 ]
  - [   0.0000465239863843,  0.0192490387707949, -0.0359344147145748 ]
  - [  -0.0000608048867434,  0.0192986521869898, -0.0359423123300076 ]
  - [   0.0000462337629870,  0.0193508807569742, -0.0359507203102112 ]
  - [  -0.0000483787152916,  0.0191001296043396, -0.0358742624521255 ]
  - [  -0.0000678214710206,  0.0192921105772257, -0.0359361916780472 ]
  - [  -0.0000481160823256,  0.0195020288228989, -0.0360139608383179 ]
  - [  -0.0000528299715370,  0.0192982666194439, -0.0359425991773605 ]
  - [  -0.0000220963265747,  0.0193023141473532, -0.0359436199069023 ]
  - [  -0.0000217205379158,  0.0192958191037178, -0.0359429381787777 ]
  - [  -0.0005455235950649,  0.0192904658615589, -0.0359556116163731 ]
  - [  -0.0000650312285870,  0.0193050876259804, -0.0359893739223480 ]
  - [  -0.0000647725537419,  0.0192957799881697, -0.0358939170837402 ]
  - [  -0.0000106480401882, -0.0156551524996758,  0.0473566651344299 ]
  - [  -0.0000086162144726, -0.0154232643544674,  0.0473304502665997 ]
  - [  -0.0000212420800381, -0.0155386328697205,  0.0473423227667809 ]
  - [   0.0005843622493558, -0.0155316032469273,  0.0476541891694069 ]
  - [   0.0006274951738305, -0.0155089199542999,  0.0470345877110958 ]
  - [   0.0000287147195195, -0.0155381038784981,  0.0473379082977772 ]
  - [   0.0000017902348191, -0.0155560299754143,  0.0473467819392681 ]
  - [   0.0000027032801881, -0.0155214630067348,  0.0473641604185104 ]
  - [  -0.0000192582374439, -0.0155393015593290,  0.0473123826086521 ]
  - [  -0.0000395840033889, -0.0155867375433445,  0.0472978316247463 ]
  - [  -0.0000577680766582, -0.0155269578099251,  0.0473198220133781 ]
  - [   0.0000262297689915, -0.0155095346271992,  0.0474003329873085 ]
  - [   0.0091270953416824,  0.0013222247362137, -0.0058008078485727 ]
  - [   0.0093688936904073, -0.0015469696372747,  0.0059295222163200 ]
  - [   0.0000779123656685, -0.0000832900404930, -0.0000468082726002 ]
  - [  -0.0000225407202379, -0.0000838777050376, -0.0000522918999195 ]
  - [  -0.0000203596009669, -0.0000745994038880, -0.0000320822000504 ]
  - [  -0.0000183002994163, -0.0000807126052678, -0.0000432878732681 ]
  - [   0.0004440223565325, -0.0000636917538941, -0.0000835787504911 ]
  - [  -0.0001944350078702, -0.0002481541596353,  0.0000868132337928 ]
  - [  -0.0002045426517725,  0.0000616945326328, -0.0001230491325259 ]
  - [  -0.0000164558878168, -0.0000806879252195, -0.0000416941475123 ]
  - [  -0.0000203413655981, -0.0000953684793785, -0.0000378197291866 ]
  - [  -0.0000185904791579, -0.0000707268482074, -0.0000432935776189 ]
  - [  -0.0000767121091485,  0.0156144015491009, -0.0472518801689148 ]
  - [  -0.0001016017049551,  0.0156195312738419, -0.0472165271639824 ]
  - [  -0.0001054145395756,  0.0155649632215500, -0.0473261848092079 ]
  - [  -0.0000842204608489,  0.0155939757823944, -0.0472719743847847 ]
  - [   0.0000669938162901,  0.0156396180391312, -0.0473056063055992 ]
  - [   0.0000624597887509,  0.0155516788363457, -0.0472296699881554 ]
  - [   0.0000014360994101,  0.0159907434135675, -0.0475007221102715 ]
  - [   0.0000100927427411,  0.0151955019682646, -0.0470477789640427 ]
  - [   0.0000437395647168,  0.0155919268727303, -0.0472616627812386 ]
  - [  -0.0000030705705285,  0.0156084001064301, -0.0472814776003361 ]
  - [  -0.0000057229772210,  0.0155597031116486, -0.0472630150616169 ]
  - [   0.0000249715521932,  0.0155920218676329, -0.0472696870565414 ]
- atom:    1
  displacement:
    [  -0.0100000000000000,  0.0000000000000000,  0.0000000000000000 ]
  forces:
  - [   0.0256210640072823, -0.0019935909658670,  0.0013476237654686 ]
  - [   0.0003396537795197, -0.0020556701347232,  0.0012121908366680 ]
  - [   0.0003588605322875, -0.0020349230617285,  0.0018312335014343 ]
  - [  -0.0000946546497289, -0.0020450856536627,  0.0015226639807224 ]
  - [  -0.0001001635682769, -0.0020396644249558,  0.0015230029821396 ]
  - [  -0.0000999532931019, -0.0020512817427516,  0.0015225745737553 ]
  - [  -0.0005142074660398, -0.0020788703113794,  0.0012965537607670 ]
  - [  -0.0002402753161732, -0.0020538177341223,  0.0018849410116673 ]
  - [  -0.0002383521350566, -0.0020046988502145,  0.0013833306729794 ]
  - [  -0.0000993198991637, -0.0020425301045179,  0.0015249401330948 ]
  - [  -0.0000996135349851, -0.0020486842840910,  0.0015208944678307 ]
  - [  -0.0000983176287264, -0.0020445119589567,  0.0015247613191605 ]
  - [   0.0001330988598056, -0.0192824713885784,  0.0359435901045799 ]
  - [  -0.0000375286908820, -0.0192767903208733,  0.0359072908759117 ]
  - [  -0.0000411246437579, -0.0192848443984985,  0.0359854400157928 ]
  - [   0.0000601276406087, -0.0192801766097546,  0.0359470918774605 ]
  - [   0.0001192856580019, -0.0191517118364573,  0.0359649509191513 ]
  - [   0.0001229335321113, -0.0194109920412302,  0.0359266921877861 ]
  - [  -0.0001104575203499, -0.0193357300013304,  0.0359020382165909 ]
  - [   0.0000064983869379, -0.0192918740212917,  0.0359591692686081 ]
  - [  -0.0001233634538949, -0.0192055925726891,  0.0359886735677719 ]
  - [  -0.0000197289009520, -0.0192861538380384,  0.0359512157738209 ]
  - [  -0.0000169616432686, -0.0192818529903889,  0.0359454341232777 ]
  - [  -0.0000161124989972, -0.0192739851772785,  0.0359420441091061 ]
  - [   0.0000608574046055,  0.0081153735518456, -0.0099756941199303 ]
  - [   0.0000424525060225,  0.0080882012844086, -0.0099840089678764 ]
  - [   0.0000440053700004,  0.0081414766609669, -0.0099681764841080 ]
  - [   0.0005450850585476,  0.0080980546772480, -0.0099652558565140 ]
  - [   0.0000852947996464,  0.0080723613500595, -0.0100780948996544 ]
  - [   0.0000906317727640,  0.0081571489572525, -0.0098758563399315 ]
  - [   0.0000272894976661,  0.0081030093133450, -0.0099650844931602 ]
  - [   0.0000275882939604,  0.0081226006150246, -0.0099844411015511 ]
  - [   0.0000270673990599,  0.0081147663295269, -0.0099777877330780 ]
  - [  -0.0000623732848908,  0.0077495276927948, -0.0103717744350433 ]
  - [  -0.0000735270223231,  0.0084691569209099, -0.0095768570899963 ]
  - [   0.0000491963510285,  0.0081218183040619, -0.0099823102355003 ]
  - [  -0.0040834024548531,  0.0019189817830920,  0.0014213025569916 ]
  - [   0.0001693814992905,  0.0020155403763056, -0.0014329999685287 ]
  - [  -0.0041431440040469,  0.0021270997822285, -0.0043433681130409 ]
  - [   0.0001084413379431,  0.0020255688577890, -0.0014358274638653 ]
  - [   0.0001087412238121,  0.0020165480673313, -0.0014338605105877 ]
  - [   0.0001070498256013,  0.0020082164555788, -0.0014306157827377 ]
  - [   0.0001829750835896,  0.0020202584564686, -0.0014368630945683 ]
  - [   0.0005878489464521,  0.0019279457628727, -0.0011505559086800 ]
  - [   0.0006347354501486,  0.0020990623161197, -0.0017056390643120 ]
  - [   0.0000999737530947,  0.0020156577229500, -0.0014345832169056 ]