4
Lattice="4.0142007906308095 0.0893767757262151 -3.8951585309679944 -0.6574638967106953 3.9610022044322815 -3.895158607928566 -0.0740704974932658 -0.08937666011220291 5.592904416772903" Properties=species:S:1:pos:R:3:forces:R:3 structure_index=0 total_energy=-13.024410247802734 stress="0.0749056413769722 -0.007985319942235947 0.015369335189461708 -0.007985318079590797 0.07188519090414047 0.01854514889419079 0.015369457192718983 0.018545102328062057 0.04586256667971611" pbc="T T T"
Li       0.00000001      -0.00000001       0.00000002      -0.00000010      -0.00000011      -0.00000043
Li       2.80924937       1.01259480      -1.09870634      -0.00000008       0.00000007       0.00000016
Sn       1.67836843       2.02518951      -3.89515860       0.00000080       0.00000033      -0.00000009
Sn       0.47341703       2.94840750      -1.09870637      -0.00000062      -0.00000029       0.00000037
4
Lattice="3.2894175039321616 0.04427116803144369 3.8291476654841094e-08 -0.05537278439747261 3.2892493753842915 2.184471832958162e-08 1.0470289186864631e-07 6.2931354674134e-08 9.050182020351151" Properties=species:S:1:pos:R:3:forces:R:3 structure_index=1 total_energy=-14.291661262512207 stress="0.0233444981276989 -0.018031178042292595 -5.491883214858717e-08 -0.018031150102615356 0.022249439731240273 9.051951792571344e-07 -4.877615467080432e-08 8.577364383199892e-07 0.013816986232995987" pbc="T T T"
Li       0.00000001       0.00000001      -0.00000002      -0.00000039      -0.00000019       0.00000009
Sn       1.61702244       1.66676031       7.06588029       0.00000050       0.00000014       0.03564207
Sn       0.00000004       0.00000004       4.52509102      -0.00000035      -0.00000005      -0.00000041
Sn       1.61702239       1.66676028       1.98430181       0.00000025       0.00000010      -0.03564174
6
Lattice="5.385244299842581 -0.037882578785561144 -1.6151597043219748 -2.990715974469373 4.478605697331798 -1.6151596211461736 0.020426988407275446 0.0378825545609189 5.622204208893266" Properties=species:S:1:pos:R:3:forces:R:3 structure_index=2 total_energy=-17.40044593811035 stress="-0.018966251984238625 -0.01309600006788969 0.009526768699288368 -0.013096320442855358 -0.036191411316394806 0.01766623929142952 0.009526839479804039 0.017666539177298546 -0.024755418300628662" pbc="T T T"
Li      -0.72511670       3.66773796      -1.05044688       0.00730650       0.01354930       0.02404195
Li       3.14007201       0.81086771       3.44233176      -0.00730629      -0.01354963      -0.02404147
Li       0.01863356       1.44737639       2.00352226      -0.02512780       0.01354941      -0.00000009
Li       2.39632175       3.03122929       0.38836260       0.02512738      -0.01354888       0.00000042
Sn       0.59863207       1.11018075      -0.80757980       0.00000038       0.00000021      -0.00000059
Sn       1.79589626       3.33054236      -2.42273950      -0.00000019      -0.00000040      -0.00000024
105
Lattice="11.980271088131564 -3.357286557950439e-08 6.916812617644488 3.9934236909402627 11.29510823582847 6.916812571659869 -8.955102855603393e-08 -1.1964153560420603e-07 13.833625390395936" Properties=species:S:1:pos:R:3:forces:R:3 structure_index=3 total_energy=-277.4918212890625 stress="0.0004470337589737028 -7.360039262493956e-07 -7.100412631189101e-07 -4.914815576739784e-07 0.000445503304945305 -6.267000429716063e-08 -2.5404409598195343e-07 -1.4718203544816788e-07 0.0004484417731873691" pbc="T T T"
Li      10.61167381       1.93548876       9.28729254      -0.01168736       0.01652934       0.02024473
Li       5.36202089       9.35961928      18.37995803       0.01168824      -0.01652909      -0.02024208
Li      13.23650022       9.35961933      13.83362527      -0.02337405      -0.01652887      -0.00000001
Li       2.73719440       1.93548873      13.83362535       0.02337715       0.01652955      -0.00000038
Li      10.61167377       1.93548870      18.37995806      -0.01168651       0.01653001      -0.02024164
Li       5.36202092       9.35961937       9.28729249       0.01168793      -0.01652985       0.02024494
Li      10.92588070       7.72576449      18.92418032       0.00740038       0.00523276       0.01281497
Li      11.98027103      10.70803081      20.75043801      -0.00000069      -0.01569699      -0.00000202
Li      10.92588063       7.72576447      22.57669551       0.00739987       0.00523212      -0.01281608
Li      14.08905169       7.72576449      20.75043789      -0.01479792       0.00523300      -0.00000226
Li       7.98684737       8.44201120      13.83362523      -0.00000100      -0.03334861       0.00000073
Li       6.66952767       4.71606833      11.55196066       0.01572113       0.01111635       0.02722918
Li      10.62148674       4.71606832      13.83362530      -0.03144160       0.01111637       0.00000036
Li       6.66952763       4.71606832      16.11528995       0.01572088       0.01111683      -0.02722866
Li       8.88654436       6.28373588      15.39194615       0.01307768       0.00924732       0.02265200
Li       7.98684737       3.73900840      13.83362533      -0.00000067      -0.02774227      -0.00000140
Li       8.88654435       6.28373596      12.27530435       0.01307758       0.00924721      -0.02265292
Li       6.18745332       6.28373593      13.83362528      -0.02615595       0.00924817       0.00000111
Li       9.25104417       3.61373875       6.91681260      -0.04529326       0.00748520      -0.00000013
Li       0.11595181       0.08199027       9.30730016       0.02666736       0.01885679      -0.03226300
Li       6.49074687       7.51738868       6.91681258      -0.00804008      -0.04519894       0.00000029
Li       0.11595188       0.08199036       4.52632514       0.02666626       0.01885633       0.03226257
Li       8.00238256       0.08199030       9.07955789      -0.04127159       0.01885660      -0.00696403
Li       1.36461347       3.61373877       2.36357979       0.02264639       0.00748570       0.03922593
Li       3.86193662       0.08199028      11.47004547       0.01460667       0.01885631      -0.03922392
Li       2.74476209       7.51738872       4.75406727       0.00401936      -0.04519843       0.00696283
Li       8.00238257       0.08199034       4.75406728      -0.04127200       0.01885625       0.00696377
Li       2.74476204       7.51738863       9.07955797       0.00402110      -0.04519814      -0.00696480
Li       3.86193663       0.08199033       2.36357978       0.01460736       0.01885665       0.03922591
Li       1.36461342       3.61373870      11.47004550       0.02264532       0.00748531      -0.03922396
Li      11.98027100       5.79775969      20.75043796      -0.00000019      -0.01384019      -0.00000204
Li      13.24060463       9.36252150      22.93339972       0.00652478       0.00461322       0.01130221
Li       9.45960382       9.36252142      20.75043804      -0.01304862       0.00461405      -0.00000196
Li      13.24060467       9.36252151      18.56747613       0.00652557       0.00461360      -0.01130017
Li      12.16282740       8.60041792      16.33455300      -0.00985793      -0.00697074      -0.00080230
Li       5.25477871       0.65269110      13.83362535       0.00939380       0.00762619      -0.00000085
Li      12.16282743       8.60041795      11.33269742      -0.00985727      -0.00697080       0.00080084
Li       2.36695596       4.73668923      13.83362534       0.01032133       0.00631495      -0.00000087
Li       9.35288161       0.65269105      16.19966618      -0.00469634       0.00762589      -0.00813761
Li       8.06472445       8.60041798       8.96665660       0.00423256      -0.00697112       0.00893885
Li      10.79679300       4.73668924      18.70059389      -0.00515999       0.00631495      -0.00893788
Li       3.73299031       8.60041793      11.46758446       0.00562348      -0.00697051       0.00813527
Li      10.79679302       4.73668931       8.96665668      -0.00516081       0.00631465       0.00893917
Li       8.06472435       8.60041789      18.70059387       0.00423465      -0.00697055      -0.00893759
Li       9.35288169       0.65269113      11.46758447      -0.00469621       0.00762501       0.00813464
Li       3.73299027       8.60041792      16.19966613       0.00562399      -0.00697093      -0.00813788
Li      -0.00000000       0.00000003       0.00000003      -0.00000077       0.00000006      -0.00000092
Li       2.30047013       3.42232647       6.91681266       0.01431024      -0.00505988      -0.00000011
Li       4.83990049       3.42232650       5.45067191      -0.00715543      -0.00505942       0.01239287
Li       3.99342367       1.02812858       6.91681267      -0.00000028       0.01517872      -0.00000066
Li       4.83990046       3.42232651       8.38295334      -0.00715512      -0.00505940      -0.01239343
Li       2.60587012       4.78607413       4.51349939       0.00289537      -0.00409453       0.00501523
Li       5.38097719       0.86147988       9.32012586      -0.00289581       0.00409557      -0.00501559
Li       2.60587010       4.78607411       9.32012589       0.00289553      -0.00409509      -0.00501585
Li       5.38097723       0.86147995       4.51349944      -0.00289555       0.00409519       0.00501498
Li       1.21831661       0.86147994       6.91681268       0.00579183       0.00409575      -0.00000059
Li       6.76853077       4.78607413       6.91681261      -0.00579141      -0.00409486      -0.00000009
Li       3.99342370       8.77041237       6.91681257      -0.00000017      -0.03049479      -0.00000035
Li       1.19015300       0.84156526       2.06140545       0.01437412       0.01016500       0.02489856
Li       9.59996505       0.84156526       6.91681264      -0.02874988       0.01016483      -0.00000076
Li       1.19015295       0.84156522      11.77221988       0.01437437       0.01016517      -0.02489684
Li      11.50930197       5.86653615      11.44233887      -0.03616334       0.01734485      -0.00744459
Li       4.15470527       5.86653610      15.68851726       0.01163562       0.01734453      -0.03504075
Li       9.36745717       8.89556216      16.22491162       0.00429774      -0.03987677       0.00744534
Li       6.91592495       1.96158170      11.97873339       0.02023057       0.00518863       0.03504156
Li      11.50930193       5.86653613      16.22491165      -0.03616371       0.01734445       0.00744541
Li       4.15470524       5.86653615      11.97873334       0.01163502       0.01734451       0.03504114
Li       6.91592496       1.96158165      15.68851728       0.02023055       0.00518825      -0.03504049
Li       9.36745718       8.89556216      11.44233890       0.00429797      -0.03987665      -0.00744472
Li      10.12869212       1.96158170      13.83362531      -0.04046140       0.00518750       0.00000121
Li       5.22562764       8.89556215      13.83362526      -0.00859515      -0.03987717       0.00000162
Li       8.29653487       5.86653617       9.58744695       0.02452875       0.01734456       0.02759568
Li       8.29653475       5.86653611      18.07980353       0.02452908       0.01734495      -0.02759546
Li      13.21451283       6.21642299      13.83362525      -0.00796755       0.02554976       0.00000012
Li       4.23356963       2.99358583      16.38733975      -0.00673189      -0.00476076      -0.02546186
Li      10.26573730      10.38662149      13.83362524       0.02143187      -0.01602895       0.00000009
Li       4.23356965       2.99358587      11.27991086      -0.00673253      -0.00476079       0.02546173
Li      12.07506785       2.99358582      15.80720181      -0.01868279      -0.00476085       0.01856178
Li       5.37301462       6.21642302       9.30633427       0.00398401       0.02554966       0.00689932
Li       7.65190448       2.99358576      18.36091643       0.02541504      -0.00476145      -0.00689878
Li       6.84740243      10.38662151      11.86004875      -0.01071655      -0.01602837      -0.01856120
Li      12.07506794       2.99358585      11.86004875      -0.01868246      -0.00476103      -0.01856135
Li       6.84740237      10.38662149      15.80720179      -0.01071669      -0.01602925       0.01856150
Li       7.65190454       2.99358588       9.30633421       0.02541600      -0.00476129       0.00689880
Li       5.37301455       6.21642295      18.36091642       0.00398380       0.02554946      -0.00689910
Sn      10.82997159       7.65794659      13.83362529      -0.00300614      -0.00212786       0.00000113
Sn       5.14372306       3.63716150      13.83362539       0.00300726       0.00212674      -0.00000090
Sn       9.40840947       3.63716147      16.29584299      -0.00150206       0.00212776      -0.00260563
Sn       6.56528521       7.65794657      11.37140744       0.00150420      -0.00212720       0.00260392
Sn       9.40840947       3.63716157      11.37140749      -0.00150339       0.00212834       0.00260562
Sn       6.56528516       7.65794653      16.29584320       0.00150449      -0.00212726      -0.00260612
Sn      11.98027102       2.83204942      20.75043800      -0.00000186       0.00606635      -0.00000419
Sn      14.63865369      10.35109157      25.35489175      -0.00285960      -0.00202139      -0.00494369
Sn       6.66350543      10.35109166      20.75043811       0.00571865      -0.00202206      -0.00000397
Sn      14.63865380      10.35109174      16.14598393      -0.00285995      -0.00202045       0.00494897
Sn      13.40828971       6.45180781      23.22383878       0.00591117      -0.00836277       0.01024093
Sn      10.55225243      10.49085444      18.27703717      -0.00591434       0.00835884      -0.01023481
Sn      13.40828973       6.45180777      18.27703715       0.00590952      -0.00836252      -0.01023491
Sn      10.55225253      10.49085441      23.22383869      -0.00591479       0.00836096       0.01024082
Sn      14.83630814      10.49085439      20.75043807       0.01182155       0.00836041      -0.00000261
Sn       9.12423376       6.45180771      20.75043807      -0.01182446      -0.00835999      -0.00000162
Sn       3.99342363       5.83039265       6.91681258       0.00000009      -0.02311326       0.00000053
Sn       2.57609147       1.82157185       4.46192141       0.01089457       0.00770445       0.01887251
Sn       6.82808799       1.82157181       6.91681266      -0.02178898       0.00770505      -0.00000009
Sn       2.57609148       1.82157180       9.37170390       0.01089441       0.00770497      -0.01887335
4
Lattice="3.8403425706675316 -0.7878292302247276 -2.491508343450746 -1.208143214462984 3.470653516601918 -2.841034032163194 0.35779141138635256 0.7878294717324481 4.563752366287041" Properties=species:S:1:pos:R:3:forces:R:3 structure_index=4 total_energy=-11.291616439819336 stress="0.03446906805038452 -0.018680129200220108 0.03808259218931198 -0.018680104985833168 0.03181643411517143 0.03784136846661568 0.03808214142918587 0.03784141689538956 -0.023878294974565506" pbc="T T T"
Li       0.65958958       1.45149771       3.07216423       0.01737927       0.01825537      -0.03654771
Li       1.98949922       2.80698547       0.37791547      -0.01844155      -0.01825520       0.03602442
Li       3.06314762       1.34141223      -1.80390946       0.00452535       0.00000016       0.00223308
Sn       1.75041542       0.00000014       0.86402386      -0.00346307      -0.00000033      -0.00170980
6
Lattice="5.406761772974136 2.4841637090017495e-08 3.121595296495071 1.8022539004809122 5.0975439634477455 3.1215953783599675 -4.985085230437652e-08 6.501373634831988e-08 6.243190679334348" Properties=species:S:1:pos:R:3:forces:R:3 structure_index=5 total_energy=-21.48116111755371 stress="0.020053144544363022 1.2767617185716063e-08 -2.3996351501409663e-06 -9.629956565504472e-08 0.020054683089256287 7.809965723026835e-07 -2.2768028884456726e-06 7.7872289239167e-07 0.020053060725331306" pbc="T T T"
Li      -0.00000000      -0.00000000       0.00000000       0.00000028      -0.00000040      -0.00000013
Sn       1.80225390       1.27438601       3.12159534      -0.00000028       0.00000041      -0.00000016
Sn       4.50693738       3.18688612       7.80624454      -0.01252957      -0.00886040      -0.02170254
Sn       4.50693741       3.18688609       4.68013681      -0.01253184      -0.00886045       0.02170361
Sn       1.79964865       3.18688611       6.24319070       0.02506163      -0.00886056      -0.00000091
Sn       3.60450782       0.63442979       6.24319066      -0.00000025       0.02658139       0.00000010
24
Lattice="7.7806594364875 -2.8889736896727455e-08 4.492166246474119 2.593553196743724 7.335676936220955 4.49216611053343 1.2202814808331662e-07 -8.020573059750192e-08 8.984332281589284" Properties=species:S:1:pos:R:3:forces:R:3 structure_index=6 total_energy=-69.89607238769531 stress="0.014363700523972511 -9.514031944490853e-07 6.32423962088069e-07 -8.7789669578342e-07 0.014376722276210785 -3.701308060044539e-07 1.025211304295226e-06 -2.6633301786205266e-07 0.014371671713888645" pbc="T T T"
Li       3.89032979      -0.00000005       6.73824928      -0.00000047      -0.00000057      -0.00000092
Li       3.89032971      -0.00000003       2.24608315      -0.00000054      -0.00000047      -0.00000072
Li       0.00000006      -0.00000004       4.49216614       0.00000224       0.00000077      -0.00000029
Li       5.18710636       3.66783840       8.98433233       0.00000098      -0.00000054       0.00000100
Li       4.82349901       6.16160792      13.47649840      -0.02030964      -0.01436074       0.00000041
Li       9.25923979       6.16160796      10.91552212       0.01015380      -0.01436095      -0.01758968
Li       9.25923986       6.16160791      16.03747491       0.01015452      -0.01436081       0.01758774
Li       3.70852607       3.00798813       6.42335594      -0.01015527       0.01436097      -0.01758973
Li       3.70852614       3.00798808      11.54530868      -0.01015515       0.01436112       0.01758836
Li       8.14426691       3.00798810       8.98433237       0.02030970       0.01436149       0.00000055
Li       5.55071373       1.17406889       4.49216619       0.02030981       0.01436017       0.00000123
Li       1.11497296       1.17406887       7.05314252      -0.01015418       0.01436089       0.01758861
Li       1.11497287       1.17406893       1.93118977      -0.01015443       0.01435955      -0.01758775
Li       6.66568669       4.32768869      11.54530872       0.01015544      -0.01436161       0.01758805
Li       6.66568663       4.32768877       6.42335596       0.01015505      -0.01436184      -0.01758873
Li       2.22994584       4.32768872       8.98433228      -0.02031080      -0.01436070       0.00000014
Sn       7.78065953       6.23606242      13.47649843      -0.00000174       0.04488115       0.00000048
Sn       3.28586243       1.58915088       8.98433231       0.04231441      -0.01496132       0.00000179
Sn       6.13772831       1.58915090       7.33780663      -0.02115675      -0.01495977       0.03664437
Sn       6.13772840       1.58915092      10.63085808      -0.02115685      -0.01495879      -0.03664723
Sn       2.59355320       1.09961436       4.49216615      -0.00000069      -0.04488392       0.00000097
Sn       7.08835036       5.74652600       8.98433227      -0.04231521       0.01496180       0.00000303
Sn       4.23648444       5.74652591      10.63085801       0.02115802       0.01496104      -0.03664735
Sn       4.23648442       5.74652594       7.33780658       0.02115773       0.01496307       0.03664559
2
Lattice="3.3066647539663574 -3.785629560064532e-08 7.135319545499881e-09 -1.653332409767691 2.8636555534405286 -5.513390573450374e-10 1.0053443148572436e-08 4.907363777622564e-09 4.642072341576573" Properties=species:S:1:pos:R:3:forces:R:3 structure_index=7 total_energy=-6.436872482299805 stress="-0.051501814275979996 -1.1536260835498524e-08 -5.292486804364671e-08 8.587642241764115e-08 -0.051497794687747955 -8.672294882217102e-08 -6.488072301635839e-08 -7.31347924443071e-08 0.16775138676166534" pbc="T T T"
Li      -0.00000000      -0.00000000      -0.00000000       0.00000002       0.00000002       0.00000010
Sn       1.65333237       0.95455183       2.32103618      -0.00000002      -0.00000002      -0.00000010
8
Lattice="5.138594954582131 -1.0936935400326662e-08 2.966769281782869 1.712864976614375 4.8447137436255785 2.966769278206 4.7585380329239325e-08 2.9267193042713154e-08 5.933538481145441" Properties=species:S:1:pos:R:3:forces:R:3 structure_index=8 total_energy=-18.825246810913086 stress="-0.0453580804169178 3.024228476533608e-07 4.085185878466291e-08 2.1531182881062705e-07 -0.045355599373579025 -9.609191238268977e-07 7.446924144005607e-08 -6.052282515156548e-07 -0.04535559192299843" pbc="T T T"
Li       2.56929748      -0.00000000       1.48338464      -0.00000044       0.00000005      -0.00000051
Li       0.85643249       2.42235687       1.48338464      -0.00000021      -0.00000034      -0.00000019
Li       0.00000002       0.00000001       2.96676924       0.00000008       0.00000004      -0.00000018
Li       0.85643251       2.42235689       4.45015388      -0.00000007      -0.00000046       0.00000029
Li       2.56929750       0.00000001       4.45015388      -0.00000063       0.00000007       0.00000050
Li       3.42572996       2.42235687       2.96676927       0.00000033      -0.00000030       0.00000013
Li       3.42572999       2.42235688       5.93353853      -0.00000000       0.00000001      -0.00000007
Sn      -0.00000000      -0.00000000       0.00000000       0.00000094       0.00000096       0.00000002
6
Lattice="3.2576494633507886 0.006038643686318263 -12.930957198909848 -0.044254020602615435 3.2573532322335947 -12.93095682741469 -0.005947573384856754 -0.006038597037255025 13.334987565209369" Properties=species:S:1:pos:R:3:forces:R:3 structure_index=9 total_energy=-20.911090850830078 stress="0.025691702961921692 -0.00039872591150924563 0.003145114053040743 -0.00039869386819191277 0.025715753436088562 0.0032030525617301464 0.0031451245304197073 0.0032025654800236225 0.0007882046047598124" pbc="T T T"
Li      -0.00000000      -0.00000001      -0.00000015       0.00000004       0.00000007       0.00000146
Li       2.42919983       0.81584799      -6.26346336      -0.00000033       0.00000045       0.00000107
Sn       1.37001547       1.39133117     -11.02610049       0.00375780       0.00381626      -0.03024617
Sn       1.01493029       2.68187006      -8.16831958      -0.00375743      -0.00381594       0.03024298
Sn       1.84337997       1.87206070     -14.83581334      -0.00375805      -0.00381760       0.03024655
Sn       0.54156583       2.20114054      -4.35860672       0.00375798       0.00381678      -0.03024587
6
Lattice="4.603714877367778 0.07148953423555368 2.1685878010229023 3.5045610830188183 2.986193555674196 2.1685881093643067 -0.005750483493924643 -0.0021678550231582997 8.662234638089005" Properties=species:S:1:pos:R:3:forces:R:3 structure_index=10 total_energy=-17.814712524414062 stress="0.021624555811285973 0.0021085243206471205 -8.332092693308368e-05 0.0021085855551064014 0.01682865433394909 -2.9586790333269164e-05 -8.334230369655415e-05 -2.937620047305245e-05 0.06277499347925186" pbc="T T T"
Li       6.77635471       2.55540705       4.33673501       0.03119630       0.01176463      -0.00040678
Li       1.32617083       0.50010822       8.66267563      -0.03119735      -0.01176470       0.00040557
Li       6.77223511       2.55385392       8.66664774       0.03306311       0.01246807       0.00068174
Li       1.33029032       0.50166129       4.33276283      -0.03306282      -0.01246819      -0.00068011
Sn       4.04877946       1.52682125       8.66477212       0.00142324       0.00053694       0.00019344
Sn       4.05374600       1.52869397       4.33463832      -0.00142247      -0.00053675      -0.00019385
2
Lattice="3.4525916726 0.0 2.1141026703061982e-16 5.552190868793002e-16 3.4525916726 2.1141026703061982e-16 0.0 0.0 3.4525916726" Properties=species:S:1:pos:R:3:forces:R:3 structure_index=11 total_energy=-6.550165176391602 stress="-0.058360446244478226 -7.80783580012212e-07 -6.548255555571814e-07 -7.905627512627689e-07 -0.058359984308481216 -9.67373466664867e-07 -5.938023264207004e-07 -9.693294487078674e-07 -0.05836307257413864" pbc="T T T"
Li       0.00000000       0.00000000       0.00000000      -0.00000037      -0.00000036      -0.00000036
Sn       1.72629584       1.72629584       1.72629584       0.00000038       0.00000036       0.00000036
4
Lattice="3.3074200761681536 3.966653038391436e-09 -7.74641780264484e-09 -1.6537100346488538 2.8643097744633175 1.1208523215575834e-08 -2.1672545637729113e-08 2.369720228623379e-08 9.323875789661221" Properties=species:S:1:pos:R:3:forces:R:3 structure_index=12 total_energy=-12.855575561523438 stress="0.04927753284573555 -8.019480901566567e-07 -3.560876038477545e-09 -7.341027981055959e-07 0.04928143322467804 -1.0520688675796919e-07 -4.47263115432861e-09 -7.89029925840623e-08 -0.02881094440817833" pbc="T T T"
Li       1.65371003       0.95476994       2.33096893      -0.00000004      -0.00000008       0.00000004
Li      -0.00000001       1.90953987       6.99290678      -0.00000012       0.00000010      -0.00000006
Sn       0.00000000      -0.00000000       0.00000004       0.00000009      -0.00000000      -0.00000009
Sn      -0.00000001       0.00000001       4.66193794       0.00000006      -0.00000002       0.00000011
3
Lattice="3.3096384650870525 -0.002707861890650615 -4.006031968703146 -0.43016682175769383 3.281565400085275 -4.006031983371748 0.002378038664092837 0.0027078518893174064 5.196344450620757" Properties=species:S:1:pos:R:3:forces:R:3 structure_index=13 total_energy=-8.828254699707031 stress="0.00994601845741272 0.011553728953003883 -0.028235221281647682 0.011553679592907429 0.012963598594069481 -0.032146770507097244 -0.0282353013753891 -0.03214700147509575 0.0783582553267479" pbc="T T T"
Li       2.86816887       3.26598706      -7.98061423      -0.00494965      -0.00563639       0.01377264
Li       0.97112666       1.10582301      -2.70213770       0.00494963       0.00563584      -0.01377170
Sn       1.91964775       2.18590501      -5.34137597       0.00000002       0.00000055      -0.00000095
12
Lattice="4.417029275771992 0.15154732421005232 -13.333993866707381 0.028731164755210228 4.419536945165384 -13.33399448338753 -0.14739026857427892 -0.15154690094570572 14.045776259684098" Properties=species:S:1:pos:R:3:forces:R:3 structure_index=14 total_energy=-39.12044906616211 stress="0.03009629249572754 -0.0006935696001164615 0.004050910007208586 -0.0006935034180060029 0.030061114579439163 0.004155116155743599 0.004050273448228836 0.004155646078288555 0.006497211754322052" pbc="T T T"
Li       0.90929829       2.03242947      -5.45444478      -0.00110055      -0.00113099       0.00660125
Li       1.93267776       0.88965868       1.56844348      -0.00110125      -0.00113130       0.00660154
Li       3.38907185       2.38710779      -7.16776721       0.00110047       0.00113214      -0.00660129
Li       2.36569248       3.52987875     -14.19065567       0.00110008       0.00113231      -0.00660135
Li       2.66087479       1.63838327      -2.79966191       0.00000002      -0.00000055       0.00000035
Li       1.63749543       2.78115408      -9.82255022       0.00000022      -0.00000038      -0.00000050
Sn       0.46672573       3.77237805      -2.79966218      -0.00000082       0.00000048       0.00000046
Sn       3.83164450       0.64715923      -9.82255003      -0.00000123       0.00000235       0.00000058
Sn       0.16074446       1.26277434      -0.96422835      -0.00230225      -0.00236951       0.01381150
Sn       1.18412388       0.12000347       6.05865998      -0.00229952      -0.00237037       0.01381315
Sn       4.13762557       3.15676311     -11.65798353       0.00230340       0.00236752      -0.01381262
Sn       3.11424629       4.29953397     -18.68087212       0.00230143       0.00236830      -0.01381309
6
Lattice="4.600137567032109 0.06868625878071447 2.1653105103298445 3.5033262270153886 2.9820612839115257 2.165310351238146 -0.001942395076555011 -0.0007316192305677613 8.657019615189204" Properties=species:S:1:pos:R:3:forces:R:3 structure_index=15 total_energy=-17.815223693847656 stress="-0.03658720850944519 -0.0019334026146680117 8.716780575923622e-05 -0.0019332082010805607 -0.03217942640185356 2.889864845201373e-05 8.741414785617962e-05 2.8716482120216824e-05 -0.013058343902230263" pbc="T T T"
Li       0.24501841       0.09224278       8.29575371       0.02015568       0.00758863      -0.00044264
Li       2.89842980       1.09118474       3.96794489      -0.00808683      -0.00304430      -0.00052452
Li       2.90298341       1.09289898       8.29768819      -0.02015579      -0.00758825       0.00044180
Li       0.25151442       0.09468856       3.96847737       0.00808629       0.00304383       0.00052443
Sn       5.62912328       2.11922129       8.29911724      -0.00386500      -0.00145508       0.00201887
Sn       5.62428465       2.11739987       3.96792592       0.00386567       0.00145518      -0.00201794
5
Lattice="3.4006386463678284 0.05682151382764069 11.798243173148924 1.7139853759575094 2.9376552161483303 11.798242980759076 0.09705375973733113 0.056821666926973595 12.278170941384337" Properties=species:S:1:pos:R:3:forces:R:3 structure_index=16 total_energy=-16.66790008544922 stress="0.031107384711503983 0.00018831167835742235 0.002202036790549755 0.00018837160314433277 0.030896885320544243 0.0012820507399737835 0.0022018991876393557 0.0012807858875021338 0.04593901336193085" pbc="T T T"
Li       2.06545843       1.20927081      14.21761170      -0.00255547      -0.00149532      -0.01759007
Li       3.14621931       1.84202756      21.65704512       0.00255519       0.00149581       0.01758854
Sn      -0.00000020      -0.00000010      -0.00000140       0.00000001      -0.00000046      -0.00000074