8
Lattice="5.361158421965855 -0.0025485124201079044 0.003891050506352764 0.0054746973651909675 5.708706028511832 -3.277243663642025 -0.002458481470665856 -0.01253185244147258 6.581922601800293" Properties=species:S:1:pos:R:3:forces:R:3 structure_index=0 total_energy=-28.88545036315918 stress="-0.03211330249905586 0.001979708205908537 0.0014136561658233404 0.001979689346626401 -0.00751323951408267 0.002267079893499613 0.0014136777026578784 0.0022671252954751253 -0.011939339339733124" pbc="T T T"
Li       2.80627994       3.03647218       2.10930607       0.00065396      -0.00217767       0.00035626
Li       0.12210814       1.12579088       5.39482021       0.00047959      -0.00035321       0.00183554
Sn       0.12717696       3.97170020       3.74990099      -0.00134919      -0.01394124      -0.03385758
Sn       2.80486323       3.02823976      -1.18228181       0.00281302      -0.03754239       0.00386574
Sn       2.80245294       0.18508109       3.75828714       0.00145669       0.01674879       0.03261059
Sn       2.80650931       0.18745486       0.45197651      -0.00088355       0.02053768      -0.03311846
Sn       0.12657842       1.14396088       2.10650226      -0.00183960       0.03622374      -0.00302448
Sn       0.12738415       3.98354332       0.47505374      -0.00133091      -0.01949570       0.03133239
9
Lattice="3.066755395063449 -6.292481850529228e-05 0.0009354406860980136 0.0008688436737925432 7.04052890933392 -4.061658823505603 -0.0004490105562514361 -0.0028388929435068664 8.128022818932951" Properties=species:S:1:pos:R:3:forces:R:3 structure_index=1 total_energy=-26.62643051147461 stress="-0.004536977503448725 0.0004930910654366016 0.0014038069639354944 0.0004930187715217471 -0.03558384254574776 0.0017451735911890864 0.0014037652872502804 0.001745165209285915 -0.03535878658294678" pbc="T T T"
Li       1.47013570       5.36097285       3.22595313      -0.00146082       0.00925401      -0.00230206
Li       1.46972719       2.57409917      -0.83641648      -0.00147099      -0.01033918      -0.00752640
Li       3.00018543       3.00640874       4.58493479       0.00154380      -0.01160953       0.00820775
Li       1.46880297       0.44527517       3.61185701      -0.00099855       0.00343856       0.00914673
Li       3.00103880       0.44856101       0.89315782       0.00124680      -0.00103232      -0.01552591
Li       3.00185076       4.93222860       0.52423628       0.00083635       0.00845812       0.00693469
Sn       1.47012582       5.14224125      -2.06124954      -0.00127568      -0.00084423      -0.00642697
Sn       2.99942391       0.44624262       6.06494541       0.00273215       0.00246094      -0.00018479
Sn       1.46887183       2.79429575       1.99722825      -0.00115308       0.00021364       0.00767697
5
Lattice="4.21143519677444 0.0008042400006230059 2.0265766262147555 1.617285369883981 3.8943065202201677 2.0213741794690607 -0.012119443859857281 -0.0075477943399545715 5.398360524860326" Properties=species:S:1:pos:R:3:forces:R:3 structure_index=2 total_energy=-13.385810852050781 stress="-0.019175617024302483 -0.003303796984255314 0.011502627283334732 -0.0033042312134057283 0.0060393973253667355 -0.00034633654286153615 0.011502230539917946 -0.0003462481836322695 -0.07772556692361832" pbc="T T T"
Li       1.95294583       0.87764207       6.43270330      -0.00754299      -0.00300560       0.02772599
Li       4.35804411       2.48645169       6.83447661       0.00725766       0.00236037      -0.02525690
Li       0.87407775       0.15883335       3.29848623      -0.00523524      -0.00802969       0.01692079
Li       5.44874166       3.21350837       4.57286104       0.00707062       0.00202893      -0.02123594
Sn       3.16218687       1.68410492       3.93434498      -0.00155006       0.00664601       0.00184606
10
Lattice="4.44951638592334 0.001973102634699794 -1.3216906188271982 -0.7298360648487673 5.211080712430569 -2.4332932063463026 -0.01684297651123317 -0.10582394417529462 8.076206527136137" Properties=species:S:1:pos:R:3:forces:R:3 structure_index=3 total_energy=-28.851245880126953 stress="-0.027212724089622498 0.003065759316086769 0.005000772420316935 0.003065891098231077 0.021778443828225136 0.017919328063726425 0.005000682082027197 0.017919417470693588 -0.02350781485438347" pbc="T T T"
Li       1.96780763       2.07803807      -0.67786943       0.00545652       0.00530287       0.01155545
Li       2.42928935       5.06711615       0.88118781       0.00558580      -0.02666612       0.01340832
Li       3.59623642       2.98946900       4.78674377      -0.00039984       0.00018635      -0.00041085
Li       0.79011565       4.00487203       3.49532449      -0.00378591      -0.00440898      -0.01020622
Li       0.32920365       1.01631849       1.93636047      -0.00428550       0.02654546      -0.01122216
Li       1.60494876       4.82781022      -1.89682323       0.00351564      -0.00672395       0.01158676
Li       1.15433368       1.25549485       4.71450437      -0.00399126       0.00667319      -0.01143781
Sn       2.79988619       2.43178324       2.10703088      -0.00036602       0.02823368      -0.00113182
Sn       3.96091718       0.38426809       6.00383283      -0.00137333      -0.00115515      -0.00308048
Sn      -0.04088447       3.65162628       0.71152554      -0.00035612      -0.02798738       0.00093879
20
Lattice="6.505726901158661 -0.03813548429763796 0.060950347058051066 0.0814455664016571 7.401441560301967 -0.6127652497927993 0.012256840791612456 -0.21698784903568308 8.022002035797366" Properties=species:S:1:pos:R:3:forces:R:3 structure_index=4 total_energy=-59.58524703979492 stress="0.003977932967245579 1.869301740953233e-05 0.00032478739740327 1.859666735981591e-05 0.002158157993108034 0.0028735343366861343 0.0003247270069550723 0.0028734963852912188 -0.0038554007187485695" pbc="T T T"
Li       2.05770262      -0.00660055       6.43415835       0.00397572       0.00982856      -0.00066859
Li       0.47041010       3.58760983       2.11962102       0.01527363       0.00704893      -0.00323004
Li       2.08799520       5.78517692       1.26446603       0.01086256      -0.01252687       0.00490271
Li       0.52946976       2.25847580       5.39191293       0.00184049       0.02032364       0.01939007
Li       3.79058738       6.62062329       3.55722635       0.00750697       0.04359085      -0.01633709
Li       5.35108611       2.90626657      -0.13770630      -0.00296040      -0.01001356       0.00014874
Li       3.72452393       0.62517824       0.77024294      -0.00797488      -0.00428730       0.01921072
Li       0.37404157       0.67975258       0.84253319      -0.00154147      -0.02030993      -0.01897894
Li       0.49860456       5.06090317       6.82159141       0.00058421      -0.00016526       0.00018835
Li       3.68520545       2.27417106       5.52515278       0.00855943       0.00477298      -0.01891917
Li       3.70026309       3.68195990       2.12488905      -0.00694610      -0.04378927       0.01660374
Li       0.51639322       6.75310683       3.50116549      -0.01627256      -0.00737832       0.00379274
Li       5.40405599       4.51706864       4.41630867      -0.01166168       0.01243409      -0.00380177
Sn       2.02780606       2.87274820      -0.12273811       0.00757215      -0.00134665      -0.00406186
Sn       5.44496614       5.78105482       1.36723642      -0.00456406       0.00659539       0.00366148
Sn       2.04673293       4.52093718       4.31542523       0.00401429      -0.00661171      -0.00393622
Sn       5.38237210       0.02638612       6.41838837      -0.00767533       0.00288587       0.00307958
Sn       5.27066175       1.47962073       3.15083816       0.02290985      -0.00004845      -0.01100199
Sn       3.75226729       5.04215578       6.85212387      -0.00083386      -0.00055106      -0.00011380
Sn       2.13919219       1.42163545       3.14450640      -0.02266902      -0.00045193       0.01007134
16
Lattice="5.516976454953852 -0.00035317184536081965 -0.0009443451513674624 0.0002960175666727949 6.120034681171092 -0.0011880519564733357 0.00028939935799273005 -0.0019484473187936194 10.132066315481035" Properties=species:S:1:pos:R:3:forces:R:3 structure_index=5 total_energy=-52.110633850097656 stress="0.007723337970674038 1.8138118321076035e-05 -6.463715544668958e-05 1.814474308048375e-05 0.007319254335016012 -6.166770617710426e-05 -6.460793520091102e-05 -6.166595267131925e-05 -0.013317575678229332" pbc="T T T"
Li       1.46296275       4.62801404       3.35702293       0.00024392       0.00611288       0.00049497
Li       1.45945459       4.63095434       8.42331372       0.00001736       0.00477736      -0.00097969
Li       5.28534388       1.55773711       0.81771691       0.00033408      -0.00587408       0.00147790
Li       0.39421272       3.10068269       5.88694019      -0.00036016       0.00836354       0.00129555
Li       4.21992965       0.03770368       8.42176441       0.00089403      -0.00752286      -0.00168756
Li       2.52798943       3.09046994       0.82377925       0.00040546       0.00847310      -0.00092793
Li       3.15365934       1.57338196       5.88321561      -0.00113255      -0.00993917       0.00245292
Li       4.21696470       0.03050875       3.35382164      -0.00016560      -0.00430421      -0.00154028
Sn       0.39596394       0.03514822       5.88721750       0.04098500       0.00571942       0.00293860
Sn       4.22144325       3.10310545       3.35502574      -0.00425166      -0.00461881      -0.00091850
Sn       1.45624167       1.55747707       3.35380782       0.00622384       0.00218258      -0.00124664
Sn       4.21664659       3.10848663       8.41678531       0.00366340      -0.00813534       0.00398633
Sn       1.46434354       1.55886199       8.42292543      -0.00384656       0.00522637      -0.00345940
Sn       2.52663137       0.02429471       0.81793128      -0.04225363       0.00901056       0.00684677
Sn       3.15226438       4.63918569       5.88980359       0.04440320      -0.00963347      -0.00361116
Sn       5.28693522       4.62365820       0.82486514      -0.04516015       0.00016213      -0.00512188
4
Lattice="4.623211182762584 0.007914988992078618 0.0005078938866611721 -2.317235730829803 3.3077252561337604 -2.322483902510691 -0.00038411979845416285 0.002355167721388338 4.640993446487102" Properties=species:S:1:pos:R:3:forces:R:3 structure_index=6 total_energy=-11.253213882446289 stress="-0.07104431837797165 -0.0020970425102859735 0.00018789384921547025 -0.0020965682342648506 0.07626751065254211 -0.0006292525795288384 0.00018747369176708162 -0.0006297681829892099 -0.04814308136701584" pbc="T T T"
Li       2.38079486       0.09007135       4.44254569      -0.00027632       0.06068576       0.00002733
Li       2.37770657       1.77233249       2.12131576       0.00023993       0.00017378      -0.00017510
Li       0.06885930       0.13912807       2.12183050       0.00097812      -0.05994628      -0.00009038
Sn       0.06669396       1.76755936      -0.19961038      -0.00094174      -0.00091328       0.00023815
8
Lattice="5.372800345550962 -0.0011403738119151571 0.004860068720508536 0.004913705217375605 5.7082787598560625 -3.254690723362718 -0.00215679288588656 -0.01728437180690895 6.572622782274744" Properties=species:S:1:pos:R:3:forces:R:3 structure_index=7 total_energy=-28.885028839111328 stress="0.005312983877956867 0.002088262466713786 0.0033502676524221897 0.0020883262623101473 -0.01352283637970686 0.02071135677397251 0.0033502625301480293 0.020711328834295273 -0.0326312854886055" pbc="T T T"
Li       4.52947379       2.87205293       0.37826624       0.00117182      -0.00067946      -0.00089710
Li       1.84297949       0.95971928       3.65541531      -0.00082928       0.00142998      -0.00072737
Sn       4.52916733       2.85327451       3.66160033       0.00149383      -0.03874113       0.00484380
Sn       1.84230084       0.97936839       0.36783317       0.00028859       0.03888583      -0.00274462
Sn       1.84813624       3.82389631      -1.25281381      -0.00286974      -0.02182225       0.03055329
Sn       4.52620854       0.01079689       5.28531122       0.00096120       0.01968658      -0.03192265
Sn       1.84513298       3.80875437       2.01870380      -0.00099073      -0.01605552      -0.03421420
Sn       4.52788034       0.02246543       2.01230051       0.00077431       0.01729595       0.03510886
4
Lattice="3.124413579496381 0.002533732872612139 -0.9663927929446612 -0.005335444166724747 4.918275952892672 -0.0016759531522250292 0.05945625373651971 0.007460238528396735 5.757747186490516" Properties=species:S:1:pos:R:3:forces:R:3 structure_index=8 total_energy=-12.94257640838623 stress="-0.03852114453911781 -0.0004766443744301796 0.0367426872253418 -0.00047657795948907733 -0.0031555648893117905 0.001513866474851966 0.0367426797747612 0.0015139556489884853 0.07660283893346786" pbc="T T T"
Li       2.43444869       4.32096121       3.15013612       0.00154568      -0.00102532       0.00738066
Li       0.30577466       1.84964763       1.77489330      -0.00169079       0.00146944      -0.00709340
Sn       1.14272023       1.85914587       4.50329982      -0.00231447       0.00240301      -0.00530411
Sn       1.59704553       4.31208456       0.42204925       0.00245959      -0.00284714       0.00501686
16
Lattice="5.729819355281226 -0.0023496369500932224 -0.0018357945457962575 -0.0029508495304947004 6.727612923159397 0.0029253878600720216 0.0051265267040175614 -0.0029943061089719 10.558450098422561" Properties=species:S:1:pos:R:3:forces:R:3 structure_index=9 total_energy=-57.45283126831055 stress="1.5063414139149245e-05 -5.354902896215208e-05 0.0002531216596253216 -5.356076508178376e-05 0.012506812810897827 -5.6778160796966404e-05 0.0002530718338675797 -5.672830229741521e-05 0.010243561118841171" pbc="T T T"
Li       3.16746540       4.40736692       1.30398204       0.01009526      -0.03742075       0.00109292
Li       3.14433145       1.10769522       6.58334240      -0.00854648       0.00116457       0.00014783
Li       0.26308799       6.25181579       1.30986313      -0.00221522       0.03578367      -0.00024027
Li       3.13619433       4.51484214       6.58206657      -0.01397439       0.00588647       0.00303048
Sn       1.23875447       1.12324739       9.24167335      -0.00225829      -0.01271781      -0.00144152
Sn       0.22263010       2.86270761       1.30647722      -0.00151553       0.02125801       0.00040480
Sn       1.29195877       4.53446299       3.83975439       0.02341276       0.01407306       0.02113862
Sn       1.27889070       4.53254131       9.33312124       0.03635922       0.01031878      -0.02527227
Sn       1.24020284       1.12869521       3.91594589      -0.00197711      -0.01716557       0.00922649
Sn       4.07470601       2.81922001       4.02890148      -0.03756858       0.02363051       0.00018617
Sn       4.14803800       6.14697334       9.22972270      -0.01862446      -0.02770645      -0.01295805
Sn       4.07738633       2.81307496       9.14029966      -0.04067563       0.02711411      -0.00660812
Sn       0.27889645       6.16612564       6.58720822       0.01822404      -0.01009933      -0.00061552
Sn       4.15216498       6.15153772       3.94834644      -0.01947553      -0.02690931       0.00213906
Sn       3.15281619       1.04589046       1.30060488       0.03441787      -0.01094136       0.00292001
Sn       0.30524602       2.85209182       6.57665373       0.02432206       0.00373138       0.00684939
8
Lattice="4.654338966932167 -0.00464963022484383 -0.0005922534618082188 -2.319640914237743 4.6708325944943345 -1.5900463708549686 0.000839509546513713 0.013145145679495197 6.67671292047474" Properties=species:S:1:pos:R:3:forces:R:3 structure_index=10 total_energy=-22.34091567993164 stress="-0.05389256030321121 0.004994825925678015 0.0003710428427439183 0.0049945758655667305 -0.041430678218603134 -0.0016335310647264123 0.00037119019543752074 -0.0016331815859302878 -0.009741703979671001" pbc="T T T"
Li      -0.38366364       1.79405444       4.83502610       0.00136643      -0.02981712      -0.02540760
Li      -0.37853693       4.09992774      -0.17256954       0.00190704       0.00542392      -0.01062986
Li       1.94278113       1.73337872       3.07850468       0.00288638      -0.01396031      -0.00094655
Li      -0.38193184       1.91132200       1.45034387      -0.00234682      -0.00570805       0.01276856
Li      -0.37627208       4.22954346       3.12236761      -0.00127073       0.03001143       0.02302757
Li       1.95148116       4.28461441       4.87544261      -0.00246345       0.01518914       0.00225262
Sn       1.94389133       1.81534536      -0.25839163       0.00040037      -0.00404384       0.00462814
Sn       1.94982390       4.19171462       1.53746489      -0.00047921       0.00290488      -0.00569290
5
Lattice="4.756612621285196 0.0008739949544576042 0.001435153697201352 -2.378341100744461 4.119368629777536 -0.0035674961862680143 -0.0005704187462100772 0.00486325240238564 5.859137024829488" Properties=species:S:1:pos:R:3:forces:R:3 structure_index=11 total_energy=-16.859262466430664 stress="-0.011136756278574467 -0.0009559819591231644 0.0012794540962204337 -0.0009559865575283766 -0.014323852956295013 0.001320481300354004 0.001279532676562667 0.0013204850256443024 -0.01876204088330269" pbc="T T T"
Li       1.28119594       0.98672887       4.78153034       0.00010069      -0.00037369       0.03541543
Li      -1.09624191       2.35512378       0.62840056       0.00011953      -0.00015734      -0.03821811
Sn      -1.09702399       2.35877253       3.55284693       0.00015041      -0.00059210      -0.02199782
Sn       1.28136518       3.73319512       5.63225822      -0.00001723       0.00067224       0.00036426
Sn       1.28238278       0.98316245       1.85522073      -0.00035340       0.00045089       0.02443626
10
Lattice="5.677980391759308 0.13045825894663818 -1.4623635134034985 -1.7212946483338334 5.247977217853526 -0.605861543696423 0.14630820143923653 -0.12597758428778205 7.190701680767495" Properties=species:S:1:pos:R:3:forces:R:3 structure_index=12 total_energy=-32.2466926574707 stress="0.021050840616226196 -0.003790856571868062 0.007982239127159119 -0.003790884278714657 -0.030031217262148857 -0.012048276141285896 0.007982189767062664 -0.012048229575157166 0.024365797638893127" pbc="T T T"
Li       2.18022915       3.66173004       3.07202194      -0.01309604      -0.00494738      -0.01037671
Li       5.07894797       0.69232574       1.57938887       0.00198020       0.00585773       0.00158749
Li       4.15435664       1.63322017       4.44141971      -0.00043252      -0.00008230      -0.00010072
Li      -1.42115167       4.84664378      -0.52456409       0.01583005       0.00547992       0.01037177
Li       3.08419505       2.70264972       0.11112339      -0.00273004      -0.00709742      -0.00182452
Sn       0.25849024       2.66841447       0.90531479      -0.00249727       0.03363666       0.03521787
Sn       1.31482774       1.56712672       5.17248233       0.00040253       0.00006978      -0.00076345
Sn       2.22679105       0.59390554       2.24690290       0.00062432      -0.03445613      -0.03396976
Sn       1.44191897       4.85450163      -1.25196913       0.01556170      -0.01932373      -0.00060279
Sn      -0.68056214       3.65433430       3.79998317      -0.01564294       0.02086286       0.00046081
8
Lattice="5.840212719299843 0.0005599370191175996 3.365784634757359 1.9465436932126272 5.506355339933109 3.3679460185606653 0.0022521697919061713 0.00029213336688144366 6.739974892141992" Properties=species:S:1:pos:R:3:forces:R:3 structure_index=13 total_energy=-30.0957088470459 stress="-0.019492384046316147 -0.0004128513392060995 -0.0018891013460233808 -0.0004128957516513765 -0.017964022234082222 -0.000263467023614794 -0.0018889992497861385 -0.00026339737814851105 -0.023030810058116913" pbc="T T T"
Li       4.62867466       2.86195957       5.11394749       0.00068331       0.00039092       0.00158414
Sn       0.73811692       0.10992548       5.12064771       0.00130582      -0.00003751      -0.00287400
Sn       3.65938907       0.10852332       6.80228241      -0.00061448       0.00049475      -0.00147336
Sn       0.73632203       0.10948302       1.74681869       0.00045535      -0.00006320       0.00251034
Sn       3.65851150       0.10995221       3.42896885      -0.00268006      -0.00070798       0.00222272
Sn       4.62988053       2.86151836       8.48598957       0.00101602       0.00162424      -0.00117959
Sn       1.71119276       2.86202964       6.80396225       0.00032146       0.00061285      -0.00110952
Sn       1.70941209       2.86465313       3.43285840      -0.00048740      -0.00231407       0.00031926
10
Lattice="5.087074177353593 0.009169694818795579 1.8894744441643392 2.5299563217716656 5.041479600403503 0.9487385380303804 -0.05684233306518875 0.001060631299961412 7.911175295581334" Properties=species:S:1:pos:R:3:forces:R:3 structure_index=14 total_energy=-30.664398193359375 stress="0.022670958191156387 -0.001298451330512762 0.007511900272220373 -0.0012985005741938949 0.010209774598479271 -0.0005247752997092903 0.0075118038803339005 -0.0005247383960522711 0.009085838682949543" pbc="T T T"
Li       5.14150374       3.87370167       5.05412361       0.00945291      -0.04131505      -0.01347597
Li       6.13284256       3.16423878      10.20560364      -0.00532960       0.04439074       0.01584825
Li       2.57778997       0.63316991       8.06420983       0.00688273       0.04173271      -0.01300386
Li       3.61853469       1.34896920       5.30280861      -0.00539603      -0.04355749       0.01639231
Li       0.60872234       0.98284311       5.76017945      -0.02058761       0.00029954      -0.00528579
Li       3.17324908       3.51809717       2.75136896      -0.01843124       0.00173630      -0.00803739
Sn       1.89078324       3.68766185       5.51395269       0.02042942       0.01536681      -0.03421029
Sn       4.46772902       0.82080236       2.50090646       0.02148212      -0.01678008      -0.03266398
Sn       3.96343875       3.32374728       7.73689160      -0.00388226      -0.02063417       0.03978740
Sn       1.45126465       1.18022395       2.83710648      -0.00462044       0.01876070       0.03464932
10
Lattice="4.268508883727596 0.03846219426495669 -1.4522780982820405 -0.06738045011398697 6.097161288609505 -0.04630595722434344 0.19026029122503954 0.0649387232195051 7.562365232078397" Properties=species:S:1:pos:R:3:forces:R:3 structure_index=15 total_energy=-30.8367919921875 stress="-0.027182569727301598 0.005032123997807503 0.008894366212189198 0.005032078363001347 -0.017130080610513687 0.0035466174595057964 0.00889437086880207 0.0035466752015054226 -0.004425683058798313" pbc="T T T"
Li       2.97235228       1.74491870      -0.57364441       0.00164893       0.00603494       0.00351668
Li       2.94024647       4.80188024      -0.59598572       0.00082329      -0.00449604       0.00372096
Li       1.31359640       4.81483491       1.62019454      -0.00297717       0.00132106      -0.00223937
Li       1.34514862       1.76850427       1.64201280      -0.00091393      -0.00182914      -0.00165510
Li       2.25211054       1.79690770       4.31682893       0.00165477      -0.00188891      -0.00156909
Li       2.22107661       4.84386559       4.29519539      -0.00060319       0.00001754      -0.00221751
Sn       3.87463295       0.27172330       2.04463772       0.00373920      -0.00240551       0.00155957
Sn       0.66580166       0.26376975       6.61328118       0.00019854       0.00321628      -0.00508829
Sn       0.63349515       3.31270042       6.58851905      -0.00223642       0.00204048      -0.00199941
Sn       3.84332828       3.32009064       2.01861089      -0.00133402      -0.00201065       0.00597157
5
Lattice="4.2168752916315695 0.002185514490891083 2.0167376033389677 1.6182113292615612 3.8989104692008683 2.012487496913621 -0.009892071549255125 -0.006471493833057075 5.388583460148834" Properties=species:S:1:pos:R:3:forces:R:3 structure_index=16 total_energy=-13.386126518249512 stress="0.028338652104139328 -0.010981674306094646 0.015143943950533867 -0.010981908068060875 0.05556529387831688 0.004447961691766977 0.015143534168601036 0.00444789370521903 -0.08182208985090256" pbc="T T T"
Li       3.37371116       3.59207753       6.03591712       0.00093129       0.00486462      -0.00792609
Li       3.00774381       0.53315557       6.80320024      -0.00310406      -0.00129030       0.00608057
Li       2.29102987       2.86984236       2.90983791       0.00655175       0.00371845      -0.02179199
Li       4.09893440       1.26045490       4.53777674      -0.00615333      -0.00199525       0.02580817
Sn       1.08172568       2.06325695       5.41136944       0.00177433      -0.00529755      -0.00217065
12
Lattice="5.268737878042339 0.4894153279925894 -0.7197481275505749 -2.2073996247165613 3.8216843185903224 -0.005916504777371769 -1.8857863773686878 -1.0875036837441594 12.596231871405102" Properties=species:S:1:pos:R:3:forces:R:3 structure_index=17 total_energy=-38.8654899597168 stress="0.017470482736825943 -0.0036009845789521933 0.010886644013226032 -0.0036009454634040594 0.003799599129706621 -0.004321659915149212 0.010886621661484241 -0.004321672022342682 -0.018566684797406197" pbc="T T T"
Li       0.98281176       0.20028587       0.10429753       0.01928267       0.01015580       0.03300017
Li       2.61620097       1.13756549       6.84131321      -0.00640652      -0.00400928       0.00722804
Li       0.03602640      -0.34832643       6.37416375      -0.00758441      -0.00487573      -0.01708244
Li       2.13211459       0.85709741      10.12528522      -0.01997811      -0.01041091      -0.03312942
Li       3.07624763       1.40455926       3.85633746       0.00812984       0.00521928       0.01647380
Li       0.49627222      -0.08103635       3.38981308       0.00632313       0.00375673      -0.00806624
Sn       0.91622560       2.70858239       2.13449863       0.02698234       0.01391697       0.01108451
Sn      -0.48934015       1.89567825      11.40976864       0.00006760       0.00008502       0.00016109
Sn       3.60275824       1.70939431       0.69824557       0.00814603       0.00547901      -0.00959266
Sn      -0.48882807      -0.65239921       9.53094831      -0.00870259      -0.00577067       0.01010272
Sn       0.45309455       2.43929042       5.11086206      -0.00058405      -0.00020080       0.00309818
Sn      -0.01086853       2.16967124       8.08961557      -0.02567594      -0.01334544      -0.01327778
4
Lattice="3.3145908783111517 -0.0005487535447943973 -0.0029387962460098063 0.0005147978012690825 4.9997294130776835 -0.0040956277235176305 0.005675926474088312 0.000532215167029549 5.0334589548186415" Properties=species:S:1:pos:R:3:forces:R:3 structure_index=18 total_energy=-13.041104316711426 stress="-0.012220908887684345 -0.0004854834987781942 0.0022154604084789753 -0.00048547086771577597 0.01155806239694357 -1.9101260306797485e-07 0.0022154764737933874 -2.1465858424107864e-07 -0.052611202001571655" pbc="T T T"
Li       0.62917742       0.93906301       0.52220476       0.00049556       0.00093527      -0.04084663
Li       0.63248995       3.44025608       2.47932984      -0.00002820      -0.00059565       0.03971557
Sn       2.28932521       0.93939476       3.00039566       0.00085658       0.00033393       0.02446835
Sn       2.28760671       3.43981111      -0.00296380      -0.00132394      -0.00067355      -0.02333728
9
Lattice="4.184361917039017 0.00010461603335418448 1.3457892598155863 1.9223224696866645 6.5195306246592315 1.200241515943124 0.08808235519234901 -0.07919385800874744 6.902541376904912" Properties=species:S:1:pos:R:3:forces:R:3 structure_index=19 total_energy=-28.29693603515625 stress="-0.010755343362689018 -0.007956648245453835 -0.013996647670865059 -0.00795671809464693 0.027346981689333916 0.024941908195614815 -0.013996508903801441 0.024942072108387947 0.02807660959661007" pbc="T T T"
Li       3.56600942       3.95618442       3.19439989       0.00469481      -0.01067677      -0.01495310
Li       2.94468732       1.84428512       5.13096632       0.00030108       0.00037520      -0.00539391
Li       2.83348491       6.12830651       5.46954463      -0.00430312       0.01409646       0.01541515
Li       5.61475284       6.21176868       4.00029027      -0.00732060      -0.02989999       0.02419290
Li       2.24854352       3.89990372       7.29298809       0.00030629       0.00692678      -0.00280629
Sn       4.27442923       6.02444525       8.17196795      -0.00025948       0.02828400      -0.00285989
Sn       4.38323409       1.77383690       7.83094037       0.00218677       0.00603099      -0.00539304
Sn       1.50358872       1.83029148       2.42526043       0.01021624       0.00498528      -0.02656510
Sn       5.01633228       4.05144850       5.86316154      -0.00582199      -0.02012192       0.01836326
4
Lattice="3.59469575754316 0.0015122094678022367 -0.0004642621120349807 -0.0005691628275902704 4.52520338115905 -0.0013602806432438154 0.001958247373338032 0.001219641713059448 4.526287847060115" Properties=species:S:1:pos:R:3:forces:R:3 structure_index=20 total_energy=-11.043680191040039 stress="-0.08122396469116211 0.004358058329671621 0.004542789421975613 0.004358226433396339 0.009758861735463142 -0.00019240639812778682 0.004542908631265163 -0.00019267645257059485 0.02052312344312668" pbc="T T T"
Li       2.79158866       2.07242878       1.09229379      -0.00141104       0.00006204       0.00112671
Li       0.99297666       4.33367592       1.09275816       0.00050567       0.00086982      -0.00012871
Li       2.79136822       4.33687451       3.35565323      -0.00010329      -0.00100486      -0.00027826
Sn       0.99412980       2.07308783       3.35624567       0.00100868       0.00007299      -0.00071973
6