phonopy:
  version: "2.37.1"
  frequency_unit_conversion_factor: 15.633302
  symmetry_tolerance: 1.00000e-05

space_group:
  type: "P1"
  number: 1
  Hall_symbol: "P 1"

primitive_matrix:
- [  1.000000000000000,  0.000000000000000, -1.000000000000000 ]
- [ -1.000000000000000,  1.000000000000000,  0.000000000000000 ]
- [  0.000000000000000,  0.000000000000000,  1.000000000000000 ]

supercell_matrix:
- [   2,   0,   0 ]
- [   0,   2,   0 ]
- [   0,   0,   2 ]

primitive_cell:
  lattice:
  - [     2.777585130983155,    -4.810883690270550,     0.000000000000000 ] # a
  - [     2.777785263625641,     4.810883690270550,     0.000000000000000 ] # b
  - [    -2.777539111477381,     1.603174796295136,     4.536125608479271 ] # c
  points:
  - symbol: Li # 1
    coordinates: [  0.843364949874020,  0.829842959700916,  0.836535460945345 ]
    mass: 6.940000
  - symbol: Li # 2
    coordinates: [  0.342795604309255,  0.829010754650422,  0.836250797556146 ]
    mass: 6.940000
  - symbol: Li # 3
    coordinates: [  0.343343262650998,  0.329504416795261,  0.836391029032328 ]
    mass: 6.940000
  - symbol: Li # 4
    coordinates: [  0.843346395962808,  0.829462956890075,  0.336435177880711 ]
    mass: 6.940000
  - symbol: Sn # 5
    coordinates: [  0.593263627688454,  0.204505402430463,  0.461552964881756 ]
    mass: 118.710000
  - symbol: Sn # 6
    coordinates: [  0.093203326020065,  0.454432610895447,  0.211201562539193 ]
    mass: 118.710000
  reciprocal_lattice: # without 2pi
  - [     0.180005999414629,    -0.103934753930840,     0.146953444232168 ] # a*
  - [     0.180005999414629,     0.103927265685718,     0.073490057254224 ] # b*
  - [     0.000000000000000,    -0.000000000000000,     0.220452449140898 ] # c*

unit_cell:
  lattice:
  - [     5.555370394608795,     0.000000000000000,     0.000000000000000 ] # a
  - [     2.777785263625641,     4.810883690270549,     0.000000000000000 ] # b
  - [     2.777831283131416,     1.603174796295135,     4.536125608479270 ] # c
  points:
  - symbol: Li # 1
    coordinates: [  0.006829488928674,  0.986478009826897,  0.836535460945346 ]
    mass: 6.940000
    reduced_to: 1
  - symbol: Li # 2
    coordinates: [  0.506544806753108,  0.486215150341167,  0.836250797556147 ]
    mass: 6.940000
    reduced_to: 2
  - symbol: Li # 3
    coordinates: [  0.506952233618670,  0.986161154144264,  0.836391029032328 ]
    mass: 6.940000
    reduced_to: 3
  - symbol: Li # 4
    coordinates: [  0.506911218082097,  0.986116560927267,  0.336435177880711 ]
    mass: 6.940000
    reduced_to: 4
  - symbol: Sn # 5
    coordinates: [  0.131710662806698,  0.611241774742009,  0.461552964881756 ]
    mass: 118.710000
    reduced_to: 5
  - symbol: Sn # 6
    coordinates: [  0.882001763480872,  0.361229284875382,  0.211201562539194 ]
    mass: 118.710000
    reduced_to: 6

supercell:
  lattice:
  - [    11.110740789217591,     0.000000000000000,     0.000000000000000 ] # a
  - [     5.555570527251281,     9.621767380541097,     0.000000000000000 ] # b
  - [     5.555662566262832,     3.206349592590270,     9.072251216958540 ] # c
  points:
  - symbol: Li # 1
    coordinates: [  0.003414744464337,  0.493239004913449,  0.418267730472673 ]
    mass: 6.940000
    reduced_to: 1
  - symbol: Li # 2
    coordinates: [  0.503414744464337,  0.493239004913449,  0.418267730472673 ]
    mass: 6.940000
    reduced_to: 1
  - symbol: Li # 3
    coordinates: [  0.003414744464337,  0.993239004913449,  0.418267730472673 ]
    mass: 6.940000
    reduced_to: 1
  - symbol: Li # 4
    coordinates: [  0.503414744464337,  0.993239004913449,  0.418267730472673 ]
    mass: 6.940000
    reduced_to: 1
  - symbol: Li # 5
    coordinates: [  0.003414744464337,  0.493239004913449,  0.918267730472673 ]
    mass: 6.940000
    reduced_to: 1
  - symbol: Li # 6
    coordinates: [  0.503414744464337,  0.493239004913449,  0.918267730472673 ]
    mass: 6.940000
    reduced_to: 1
  - symbol: Li # 7
    coordinates: [  0.003414744464337,  0.993239004913449,  0.918267730472673 ]
    mass: 6.940000
    reduced_to: 1
  - symbol: Li # 8
    coordinates: [  0.503414744464337,  0.993239004913449,  0.918267730472673 ]
    mass: 6.940000
    reduced_to: 1
  - symbol: Li # 9
    coordinates: [  0.253272403376554,  0.243107575170584,  0.418125398778073 ]
    mass: 6.940000
    reduced_to: 9
  - symbol: Li # 10
    coordinates: [  0.753272403376554,  0.243107575170584,  0.418125398778073 ]
    mass: 6.940000
    reduced_to: 9
  - symbol: Li # 11
    coordinates: [  0.253272403376554,  0.743107575170584,  0.418125398778073 ]
    mass: 6.940000
    reduced_to: 9
  - symbol: Li # 12
    coordinates: [  0.753272403376554,  0.743107575170584,  0.418125398778073 ]
    mass: 6.940000
    reduced_to: 9
  - symbol: Li # 13
    coordinates: [  0.253272403376554,  0.243107575170584,  0.918125398778073 ]
    mass: 6.940000
    reduced_to: 9
  - symbol: Li # 14
    coordinates: [  0.753272403376554,  0.243107575170584,  0.918125398778073 ]
    mass: 6.940000
    reduced_to: 9
  - symbol: Li # 15
    coordinates: [  0.253272403376554,  0.743107575170584,  0.918125398778073 ]
    mass: 6.940000
    reduced_to: 9
  - symbol: Li # 16
    coordinates: [  0.753272403376554,  0.743107575170584,  0.918125398778073 ]
    mass: 6.940000
    reduced_to: 9
  - symbol: Li # 17
    coordinates: [  0.253476116809335,  0.493080577072132,  0.418195514516164 ]
    mass: 6.940000
    reduced_to: 17
  - symbol: Li # 18
    coordinates: [  0.753476116809335,  0.493080577072132,  0.418195514516164 ]
    mass: 6.940000
    reduced_to: 17
  - symbol: Li # 19
    coordinates: [  0.253476116809335,  0.993080577072132,  0.418195514516164 ]
    mass: 6.940000
    reduced_to: 17
  - symbol: Li # 20
    coordinates: [  0.753476116809335,  0.993080577072132,  0.418195514516164 ]
    mass: 6.940000
    reduced_to: 17
  - symbol: Li # 21
    coordinates: [  0.253476116809335,  0.493080577072132,  0.918195514516164 ]
    mass: 6.940000
    reduced_to: 17
  - symbol: Li # 22
    coordinates: [  0.753476116809335,  0.493080577072132,  0.918195514516164 ]
    mass: 6.940000
    reduced_to: 17
  - symbol: Li # 23
    coordinates: [  0.253476116809335,  0.993080577072132,  0.918195514516164 ]
    mass: 6.940000
    reduced_to: 17
  - symbol: Li # 24
    coordinates: [  0.753476116809335,  0.993080577072132,  0.918195514516164 ]
    mass: 6.940000
    reduced_to: 17
  - symbol: Li # 25
    coordinates: [  0.253455609041049,  0.493058280463633,  0.168217588940355 ]
    mass: 6.940000
    reduced_to: 25
  - symbol: Li # 26
    coordinates: [  0.753455609041048,  0.493058280463633,  0.168217588940355 ]
    mass: 6.940000
    reduced_to: 25
  - symbol: Li # 27
    coordinates: [  0.253455609041049,  0.993058280463633,  0.168217588940355 ]
    mass: 6.940000
    reduced_to: 25
  - symbol: Li # 28
    coordinates: [  0.753455609041048,  0.993058280463633,  0.168217588940355 ]
    mass: 6.940000
    reduced_to: 25
  - symbol: Li # 29
    coordinates: [  0.253455609041049,  0.493058280463633,  0.668217588940355 ]
    mass: 6.940000
    reduced_to: 25
  - symbol: Li # 30
    coordinates: [  0.753455609041048,  0.493058280463633,  0.668217588940355 ]
    mass: 6.940000
    reduced_to: 25
  - symbol: Li # 31
    coordinates: [  0.253455609041049,  0.993058280463633,  0.668217588940355 ]
    mass: 6.940000
    reduced_to: 25
  - symbol: Li # 32
    coordinates: [  0.753455609041048,  0.993058280463633,  0.668217588940355 ]
    mass: 6.940000
    reduced_to: 25
  - symbol: Sn # 33
    coordinates: [  0.065855331403349,  0.305620887371005,  0.230776482440878 ]
    mass: 118.710000
    reduced_to: 33
  - symbol: Sn # 34
    coordinates: [  0.565855331403349,  0.305620887371005,  0.230776482440878 ]
    mass: 118.710000
    reduced_to: 33
  - symbol: Sn # 35
    coordinates: [  0.065855331403349,  0.805620887371005,  0.230776482440878 ]
    mass: 118.710000
    reduced_to: 33
  - symbol: Sn # 36
    coordinates: [  0.565855331403349,  0.805620887371005,  0.230776482440878 ]
    mass: 118.710000
    reduced_to: 33
  - symbol: Sn # 37
    coordinates: [  0.065855331403349,  0.305620887371005,  0.730776482440878 ]
    mass: 118.710000
    reduced_to: 33
  - symbol: Sn # 38
    coordinates: [  0.565855331403349,  0.305620887371005,  0.730776482440878 ]
    mass: 118.710000
    reduced_to: 33
  - symbol: Sn # 39
    coordinates: [  0.065855331403349,  0.805620887371005,  0.730776482440878 ]
    mass: 118.710000
    reduced_to: 33
  - symbol: Sn # 40
    coordinates: [  0.565855331403349,  0.805620887371005,  0.730776482440878 ]
    mass: 118.710000
    reduced_to: 33
  - symbol: Sn # 41
    coordinates: [  0.441000881740436,  0.180614642437691,  0.105600781269597 ]
    mass: 118.710000
    reduced_to: 41
  - symbol: Sn # 42
    coordinates: [  0.941000881740436,  0.180614642437691,  0.105600781269597 ]
    mass: 118.710000
    reduced_to: 41
  - symbol: Sn # 43
    coordinates: [  0.441000881740436,  0.680614642437691,  0.105600781269597 ]
    mass: 118.710000
    reduced_to: 41
  - symbol: Sn # 44
    coordinates: [  0.941000881740436,  0.680614642437691,  0.105600781269597 ]
    mass: 118.710000
    reduced_to: 41
  - symbol: Sn # 45
    coordinates: [  0.441000881740436,  0.180614642437691,  0.605600781269597 ]
    mass: 118.710000
    reduced_to: 41
  - symbol: Sn # 46
    coordinates: [  0.941000881740436,  0.180614642437691,  0.605600781269597 ]
    mass: 118.710000
    reduced_to: 41
  - symbol: Sn # 47
    coordinates: [  0.441000881740436,  0.680614642437691,  0.605600781269597 ]
    mass: 118.710000
    reduced_to: 41
  - symbol: Sn # 48
    coordinates: [  0.941000881740436,  0.680614642437691,  0.605600781269597 ]
    mass: 118.710000
    reduced_to: 41

displacements:
- atom:    1
  displacement:
    [   0.0100000000000000,  0.0000000000000000,  0.0000000000000000 ]
  forces:
  - [  -0.0259188041090965,  0.0152050433680415,  0.0101822391152382 ]
  - [   0.0028626667335629,  0.0012160323094577,  0.0002767494879663 ]
  - [   0.0009711720049381,  0.0017584841698408,  0.0004458101466298 ]
  - [   0.0014589156489819,  0.0004053486045450,  0.0003915338893421 ]
  - [   0.0009706863202155,  0.0015582311898470,  0.0007317841518670 ]
  - [   0.0014588525518775,  0.0010542101226747, -0.0005262548802420 ]
  - [   0.0012061507441103,  0.0016937542241067,  0.0006141345947981 ]
  - [   0.0008393134921789,  0.0013790819793940,  0.0003921026363969 ]
  - [   0.0004952539457008, -0.0030888444744051, -0.0005849734880030 ]
  - [  -0.0016286590835080,  0.0001854388974607, -0.0001117793144658 ]
  - [  -0.0016647322336212,  0.0001437101745978, -0.0001122659305111 ]
  - [   0.0005424270639196, -0.0030838642269373, -0.0005743313813582 ]
  - [  -0.0014247936196625,  0.0002789337886497, -0.0006002023001201 ]
  - [  -0.0013094241730869,  0.0005051629850641,  0.0001287334016524 ]
  - [  -0.0013104388490319,  0.0005037691444159,  0.0001313480897807 ]
  - [  -0.0014259881572798,  0.0002741395728663, -0.0006131371483207 ]
  - [   0.0090374303981662, -0.0024750595912337, -0.0004589630989358 ]
  - [   0.0088572176173329, -0.0024757226929069, -0.0004624193534255 ]
  - [   0.0000556902959943, -0.0018457561964169, -0.0001697621628409 ]
  - [   0.0000588158145547, -0.0018399376422167, -0.0001702215522528 ]
  - [   0.0000575063750148, -0.0019891334231943,  0.0000386321844417 ]
  - [   0.0000577452592552, -0.0019864332862198,  0.0000423826277256 ]
  - [  -0.0000325962901115, -0.0017745716031641,  0.0000347751192749 ]
  - [  -0.0000337289529853, -0.0017758761532605,  0.0000332654490194 ]
  - [   0.0019984885584563, -0.0017370500136167, -0.0036208089441061 ]
  - [  -0.0001419510226697, -0.0001988699659705, -0.0006979741156101 ]
  - [   0.0000687679275870, -0.0006284241098911, -0.0004408915992826 ]
  - [   0.0001839381584432,  0.0001377973239869, -0.0004711722722277 ]
  - [  -0.0001674889936112, -0.0002104353043251, -0.0007248428883031 ]
  - [   0.0020245956256986, -0.0017230687662959, -0.0036190550308675 ]
  - [   0.0001842676720116,  0.0001369981328025, -0.0004687424516305 ]
  - [   0.0000661196827423, -0.0006409343332052, -0.0004379660822451 ]
  - [   0.0008425259729847,  0.0007373631233349, -0.0000983290374279 ]
  - [  -0.0003266928251833,  0.0000727210426703, -0.0005644275806844 ]
  - [   0.0012035745894536, -0.0010507116094232, -0.0015174746513367 ]
  - [   0.0000688721193001, -0.0002111327630701, -0.0010963403619826 ]
  - [   0.0012023121817037, -0.0011999958660454, -0.0013150786980987 ]
  - [   0.0000688847940182, -0.0005224545020610, -0.0006590224802494 ]
  - [   0.0001451950520277, -0.0001181401312351, -0.0007023680955172 ]
  - [   0.0003324857680127, -0.0000703670084476, -0.0006652269512415 ]
  - [  -0.0003522410988808,  0.0006457902491093,  0.0011627618223429 ]
  - [  -0.0005375784821808,  0.0005963398143649,  0.0011252965778112 ]
  - [  -0.0006146929226816,  0.0001902614894789,  0.0011674924753606 ]
  - [   0.0005027115694247, -0.0004588704905473,  0.0004737605340779 ]
  - [  -0.0006139497854747,  0.0004999297671020,  0.0007311967201531 ]
  - [   0.0005112878279760, -0.0003665769472718,  0.0003510620445013 ]
  - [  -0.0010040923953056,  0.0007856581360102,  0.0012603662908077 ]
  - [   0.0001740362495184,  0.0015082890167832,  0.0017684865742922 ]
- atom:    1
  displacement:
    [  -0.0100000000000000,  0.0000000000000000,  0.0000000000000000 ]
  forces:
  - [   0.0276357792317867, -0.0123262796550989, -0.0093136774376035 ]
  - [  -0.0011457896325737,  0.0016641883412376,  0.0005937144160271 ]
  - [   0.0007498618215322,  0.0011219801381230,  0.0004219412803650 ]
  - [   0.0002568571362644,  0.0024746325798333,  0.0004788941005245 ]
  - [   0.0007466692477465,  0.0013228824827820,  0.0001364513300359 ]
  - [   0.0002562233712524,  0.0018261184450239,  0.0013957316987216 ]
  - [   0.0005118169356138,  0.0011864134576172,  0.0002543849404901 ]
  - [   0.0008812313899398,  0.0015000612474978,  0.0004775039851665 ]
  - [  -0.0028835805132985,  0.0040857554413378,  0.0005004332633689 ]
  - [  -0.0007226185407490,  0.0008583341259509,  0.0000300601823255 ]
  - [  -0.0007299059070647,  0.0008511313353665,  0.0000297476071864 ]
  - [  -0.0028992160223424,  0.0041241380386055,  0.0004950939910486 ]
  - [  -0.0009455421241000,  0.0007399632595479,  0.0005267296219245 ]
  - [  -0.0010618051746860,  0.0005132086807862, -0.0002124235325027 ]
  - [  -0.0010654286015779,  0.0005106584867463, -0.0002083951549139 ]
  - [  -0.0009532482363284,  0.0007378687150776,  0.0005251737311482 ]
  - [  -0.0083230026066303, -0.0016070075798780,  0.0001487401314080 ]
  - [  -0.0084762154147029, -0.0016282284632325,  0.0001374315470457 ]
  - [   0.0004907199181616, -0.0022522341459990, -0.0001468171540182 ]
  - [   0.0004890933632851, -0.0022512748837471, -0.0001476472243667 ]
  - [   0.0004919117782265, -0.0021037573460490, -0.0003527496592142 ]
  - [   0.0004911138676107, -0.0021019182167947, -0.0003545087529346 ]
  - [   0.0005840435624123, -0.0023178898263723, -0.0003493652911857 ]
  - [   0.0005796279292554, -0.0023159221746027, -0.0003494294360280 ]
  - [  -0.0014023139374331,  0.0016801424790174,  0.0027799985837191 ]
  - [   0.0007748537464067,  0.0001628231257200, -0.0001005240483209 ]
  - [   0.0005460256361403,  0.0005892841145396, -0.0003818507539108 ]
  - [   0.0004313155659474, -0.0001844782964326, -0.0003482184838504 ]
  - [   0.0007572331815027,  0.0001563219702803, -0.0001148730516434 ]
  - [  -0.0013980949297547,  0.0016891403356567,  0.0028212079778314 ]
  - [   0.0004276267136447, -0.0001783254556358, -0.0003501942846924 ]
  - [   0.0005429972079583,  0.0005904585123062, -0.0003788126632571 ]
  - [  -0.0004260258283466, -0.0013618369121104, -0.0015774182975292 ]
  - [   0.0007484767702408, -0.0006643686210737, -0.0010845889337361 ]
  - [  -0.0007624287391081,  0.0004791376704816, -0.0001595891080797 ]
  - [   0.0003641819348559, -0.0003809551999439, -0.0005548112094402 ]
  - [  -0.0007636267691851,  0.0005880753742531, -0.0003133411519229 ]
  - [   0.0003621946962085, -0.0000702722463757, -0.0009969556704164 ]
  - [   0.0002844885457307, -0.0004753805696964, -0.0009528836235404 ]
  - [   0.0000998766627163, -0.0005266983062029, -0.0009879115968943 ]
  - [  -0.0005827999557368,  0.0001886572572403,  0.0008394699543715 ]
  - [  -0.0003959318564739,  0.0002382585662417,  0.0008769519627094 ]
  - [  -0.0003230996080674,  0.0006412715301849,  0.0008318382315338 ]
  - [  -0.0014479393139482,  0.0013077449984848,  0.0014977841638029 ]
  - [  -0.0003224846150260,  0.0003326088190079,  0.0012682918459177 ]
  - [  -0.0014551973436028,  0.0011781668290496,  0.0016770092770457 ]
  - [   0.0000769495964050,  0.0000455770641565,  0.0007361434400082 ]
  - [  -0.0010948348790407, -0.0006381967104971,  0.0002561407163739 ]
- atom:    1
  displacement:
    [   0.0050002973784474,  0.0086600823395099,  0.0000000000000000 ]
  forces:
  - [  -0.0006103301420808, -0.0011050030589104,  0.0004300330183469 ]
  - [   0.0016667086165398,  0.0012187064858153,  0.0003201603249181 ]
  - [   0.0011913422495127,  0.0020131408236921,  0.0004337802529335 ]
  - [   0.0002624713815749,  0.0020293081179261,  0.0005501322448254 ]
  - [   0.0010161553509533,  0.0019864363130182,  0.0005513331852853 ]
  - [   0.0008239925373346,  0.0013816531281918,  0.0004345910565462 ]
  - [   0.0012522155884653,  0.0018493428360671,  0.0003160591004416 ]
  - [   0.0007975036278367,  0.0013310019858181,  0.0004347870126367 ]
  - [  -0.0041756294667721,  0.0042420383542776, -0.0002697405871004 ]
  - [  -0.0013505965471268,  0.0000936029246077, -0.0001010617706925 ]
  - [  -0.0013734905514866,  0.0000657247728668, -0.0001000678166747 ]
  - [  -0.0042037470266223,  0.0041809580288827, -0.0002867018338293 ]
  - [  -0.0010355466511101,  0.0001514209434390, -0.0007834890275262 ]
  - [  -0.0011518577812240,  0.0003454039106146, -0.0000688356230967 ]
  - [  -0.0011510208714753,  0.0003455647965893, -0.0000650150468573 ]
  - [  -0.0010381180327386,  0.0001395844155923, -0.0008129654452205 ]
  - [   0.0049738502129912, -0.0028196547646075,  0.0000787950120866 ]
  - [   0.0049882028251886, -0.0027719598729163,  0.0000759714748710 ]
  - [  -0.0000075486022979, -0.0024003139697015, -0.0000986871091300 ]
  - [  -0.0000149151310325, -0.0024291574954987, -0.0000988943502307 ]
  - [   0.0001163410488516, -0.0020974886137992, -0.0001287015475100 ]
  - [   0.0001161028631032, -0.0020950774196535, -0.0001321124145761 ]
  - [  -0.0001163035631180, -0.0021000527776778,  0.0006106963846833 ]
  - [  -0.0001121015811805, -0.0020936480723321,  0.0005880156531930 ]
  - [  -0.0003400441200938, -0.0010919882915914, -0.0003747069276869 ]
  - [   0.0000492886174470, -0.0002293325960636, -0.0006452210946009 ]
  - [  -0.0003503656480461, -0.0011395125184208, -0.0004124955739826 ]
  - [   0.0002574292593636, -0.0003567872336134, -0.0001621664268896 ]
  - [   0.0000397942494601, -0.0002321287174709, -0.0006570322439075 ]
  - [  -0.0002999252174050, -0.0011209060903639, -0.0004449201514944 ]
  - [   0.0002556315157562, -0.0003473196411505, -0.0001739283325151 ]
  - [  -0.0003357505484018, -0.0011539598926902, -0.0004069367423654 ]
  - [  -0.0003268400032539,  0.0011713411659002,  0.0005328683182597 ]
  - [   0.0002687528613023, -0.0002131852816092, -0.0008278959430754 ]
  - [   0.0018332495819777,  0.0000575646699872, -0.0023025861009955 ]
  - [   0.0002138080308214, -0.0002955902018584, -0.0008287760429084 ]
  - [  -0.0000661798840156, -0.0007848365930840, -0.0008175699040294 ]
  - [   0.0002082143910229, -0.0003105158684775, -0.0008194302208722 ]
  - [   0.0003374675288796, -0.0000893007963896, -0.0008259285241365 ]
  - [   0.0002103634178638, -0.0003070477396250, -0.0008308030664921 ]
  - [  -0.0004757860733662,  0.0004039633786306,  0.0009913630783558 ]
  - [  -0.0003487413923722,  0.0006249316502362,  0.0010000467300415 ]
  - [  -0.0004736064292956,  0.0004071627045050,  0.0010049403645098 ]
  - [  -0.0007481265347451, -0.0000695929920767,  0.0009904727339745 ]
  - [  -0.0004664675798267,  0.0004142094403505,  0.0010033356957138 ]
  - [   0.0010836547007784,  0.0006826664321125, -0.0003561195917428 ]
  - [  -0.0004217363893986,  0.0005068853497505,  0.0010019745677710 ]
  - [  -0.0009675659239292,  0.0020118220709264,  0.0024835001677275 ]
- atom:    1
  displacement:
    [  -0.0050002973784474, -0.0086600823395099,  0.0000000000000000 ]
  forces:
  - [   0.0023267278447747,  0.0039806924760342,  0.0004368723602965 ]
  - [   0.0000500658061355,  0.0016612195177004,  0.0005500543629751 ]
  - [   0.0005293684080243,  0.0008670263923705,  0.0004339925944805 ]
  - [   0.0014534564688802,  0.0008507054299116,  0.0003203893720638 ]
  - [   0.0007005035877228,  0.0008942238055170,  0.0003164904192090 ]
  - [   0.0008912947960198,  0.0014988775365055,  0.0004348803195171 ]
  - [   0.0004656675737351,  0.0010306783951819,  0.0005521118873730 ]
  - [   0.0009230589494109,  0.0015485235489905,  0.0004349853843451 ]
  - [   0.0018318642396480, -0.0031981666106731,  0.0001937343040481 ]
  - [  -0.0010092788143083,  0.0009425692260265,  0.0000187045661733 ]
  - [  -0.0010136940982193,  0.0009369734907523,  0.0000185237731785 ]
  - [   0.0018031479557976, -0.0031888112425804,  0.0001988331787288 ]
  - [  -0.0013361207675189,  0.0008739645127207,  0.0007232289062813 ]
  - [  -0.0012214866001159,  0.0006715799681842, -0.0000136401504278 ]
  - [  -0.0012219046475366,  0.0006701726233587, -0.0000134080764838 ]
  - [  -0.0013396529247984,  0.0008669557282701,  0.0007135486230254 ]
  - [  -0.0044339857995510, -0.0013100916985422, -0.0003919247537851 ]
  - [  -0.0044338773004711, -0.0012836260721087, -0.0003988972166553 ]
  - [   0.0005615619011223, -0.0016757036792114, -0.0002179817238357 ]
  - [   0.0005567381158471, -0.0016842284239829, -0.0002181837335229 ]
  - [   0.0004329038783908, -0.0019961849320680, -0.0001822962367442 ]
  - [   0.0004335660487413, -0.0019930179696530, -0.0001840373734012 ]
  - [   0.0006627161055803, -0.0019982317462564, -0.0009059759322554 ]
  - [   0.0006634376477450, -0.0019928431138396, -0.0009234279859811 ]
  - [   0.0009208655683324,  0.0010634073987603, -0.0003929863451049 ]
  - [   0.0005693383864127,  0.0001859935000539, -0.0001658365363255 ]
  - [   0.0009491514647380,  0.0011013858020306, -0.0004118565702811 ]
  - [   0.0003590417327359,  0.0003051397507079, -0.0006493532564491 ]
  - [   0.0005630091181956,  0.0001855927403085, -0.0001701373839751 ]
  - [   0.0009413568186574,  0.0010594185441732, -0.0004247961333022 ]
  - [   0.0003548509557731,  0.0003116666339338, -0.0006532067200169 ]
  - [   0.0009606825187802,  0.0011044749990106, -0.0004080394282937 ]
  - [   0.0007226506131701, -0.0018498908029869, -0.0022759176790714 ]
  - [   0.0001669581397437, -0.0003852992085740, -0.0008265138603747 ]
  - [  -0.0013433934655041, -0.0005759706255049,  0.0005596703849733 ]
  - [   0.0002142281155102, -0.0002946428721771, -0.0008277883753181 ]
  - [   0.0004944681422785,  0.0001895183231682, -0.0008258814923465 ]
  - [   0.0002206863573520, -0.0002871669130400, -0.0008342112414539 ]
  - [   0.0000936654396355, -0.0005044918507338, -0.0008287951350212 ]
  - [   0.0002227034419775, -0.0002862252295017, -0.0008191308006644 ]
  - [  -0.0004613472847268,  0.0004268819175195,  0.0010073650628328 ]
  - [  -0.0005856769857928,  0.0002102283760905,  0.0010018460452557 ]
  - [  -0.0004620616673492,  0.0004289157513995,  0.0009921635501087 ]
  - [  -0.0001875504822237,  0.0009024774190038,  0.0009973403066397 ]
  - [  -0.0004647721943911,  0.0004165810532868,  0.0010018344037235 ]
  - [  -0.0020765173248947,  0.0000764271244407,  0.0024500871077180 ]
  - [  -0.0005192011594772,  0.0003310795873404,  0.0010003279894590 ]
  - [   0.0000707227736712, -0.0010888297110796, -0.0003926828503609 ]
- atom:    1
  displacement:
    [   0.0050001972349615,  0.0028857728805467,  0.0081651909036706 ]
  forces:
  - [  -0.0005988671910018,  0.0005811224691570, -0.0019369497895241 ]
  - [   0.0016665048897266,  0.0012581143528223,  0.0002650310925674 ]
  - [   0.0010172519832850,  0.0017310730181634,  0.0009128600358963 ]
  - [   0.0008239652961493,  0.0014203269965947,  0.0003802364808507 ]
  - [   0.0011914158239961,  0.0016320713330060,  0.0009768984746188 ]
  - [   0.0002623558975756,  0.0017450011800975,  0.0009520917665213 ]
  - [   0.0012527178041637,  0.0014652345562354,  0.0008595462422818 ]
  - [   0.0007975082844496,  0.0014034025371075,  0.0003324709832668 ]
  - [  -0.0018373357597739,  0.0001920760842040, -0.0010616237996146 ]
  - [  -0.0014396042097360,  0.0002225002972409, -0.0001578041119501 ]
  - [  -0.0014555652160197,  0.0002028063172475, -0.0001542607787997 ]
  - [  -0.0017873413162306,  0.0001054814783856, -0.0010615212377161 ]
  - [  -0.0018454613164067,  0.0001350592356175, -0.0010917834006250 ]
  - [  -0.0012363520218059,  0.0006302386755124, -0.0004375441349111 ]
  - [  -0.0012382444692776,  0.0006217794725671, -0.0004268376214895 ]
  - [  -0.0018241689540446,  0.0001332967076451, -0.0011038361117244 ]
  - [   0.0049740006215870, -0.0020813136361539, -0.0009643345838413 ]
  - [   0.0049858400598168, -0.0020665505435318, -0.0009201195789501 ]
  - [   0.0001153408084065, -0.0020386460237205, -0.0002157746785088 ]
  - [   0.0001165661960840, -0.0020415475592017, -0.0002125706523657 ]
  - [  -0.0000068796798587, -0.0021077822893858, -0.0005100126727484 ]
  - [  -0.0000157402828336, -0.0021147625520825, -0.0005346521502361 ]
  - [  -0.0001165498979390, -0.0013391986722127, -0.0004644927103072 ]
  - [  -0.0001119609514717, -0.0013600336387753, -0.0004507456615102 ]
  - [  -0.0026795226149261,  0.0010003705974668,  0.0031745731830597 ]
  - [   0.0001389627577737, -0.0002177881542593, -0.0007865375373513 ]
  - [   0.0004578328807838, -0.0008441337849945, -0.0005001177778468 ]
  - [   0.0003417414845899, -0.0001013295259327, -0.0005549398483709 ]
  - [   0.0001221257261932, -0.0002258535241708, -0.0008045521099120 ]
  - [  -0.0027120048180223,  0.0009737911168486,  0.0031457205768675 ]
  - [   0.0003422466688789, -0.0001006377860904, -0.0005536613753065 ]
  - [   0.0004557321663015, -0.0008746329694986, -0.0004989509470761 ]
  - [  -0.0003265757113695,  0.0014789019478485,  0.0000978782773018 ]
  - [   0.0002692948037293, -0.0002713034627959, -0.0007455502636731 ]
  - [  -0.0000664411927573, -0.0004497863992583, -0.0012913132086396 ]
  - [   0.0002089068148052, -0.0002929235342890, -0.0008425391279161 ]
  - [   0.0018256267067045, -0.0015692460583523, -0.0000173845328391 ]
  - [   0.0002121039724443, -0.0002994316164404, -0.0008268561214209 ]
  - [   0.0003373346989974, -0.0002258904278278, -0.0006343880668283 ]
  - [   0.0002100882120430, -0.0003063902258873, -0.0008327411487699 ]
  - [  -0.0004755792906508,  0.0004039470513817,  0.0009912885725498 ]
  - [  -0.0003491207899060,  0.0004853806458414,  0.0011929571628571 ]
  - [  -0.0004665686865337,  0.0004182495758869,  0.0009960196912289 ]
  - [   0.0010730487992987, -0.0007782070897520,  0.0016949982382357 ]
  - [  -0.0004722967860289,  0.0004186602309346,  0.0009897169657052 ]
  - [  -0.0007449068361893,  0.0002476344816387,  0.0005488898605108 ]
  - [  -0.0004229582846165,  0.0004495773464441,  0.0010835211724043 ]
  - [  -0.0009683370590210,  0.0023513352498412,  0.0019998215138912 ]
- atom:    1
  displacement:
    [  -0.0050001972349615, -0.0028857728805467, -0.0081651909036706 ]
  forces:
  - [   0.0023169184569269,  0.0022956021130085,  0.0028020183090121 ]
  - [   0.0000502648763359,  0.0016219408717006,  0.0006052540848032 ]
  - [   0.0007035182788968,  0.0011487258598208, -0.0000453572720289 ]
  - [   0.0008917101658881,  0.0014596842229366,  0.0004903177032247 ]
  - [   0.0005253844428807,  0.0012486856430769, -0.0001091952435672 ]
  - [   0.0014530126936734,  0.0011353129521012, -0.0000831098295748 ]
  - [   0.0004656112287194,  0.0014150817878544,  0.0000089643290266 ]
  - [   0.0009231315925717,  0.0014760852791369,  0.0005372893065214 ]
  - [  -0.0005657102447003,  0.0008826303528622,  0.0009797802194953 ]
  - [  -0.0009259700309485,  0.0008068593451753,  0.0000737777445465 ]
  - [  -0.0009260360384360,  0.0008064332650974,  0.0000750279286876 ]
  - [  -0.0005544156301767,  0.0008571490179747,  0.0009802751010284 ]
  - [  -0.0005400493391789,  0.0008825656259432,  0.0010196549119428 ]
  - [  -0.0011331209680066,  0.0003939263988286,  0.0003456775448285 ]
  - [  -0.0011391270672902,  0.0003870510263368,  0.0003576632589102 ]
  - [  -0.0005399550427683,  0.0008807210251689,  0.0010161194950342 ]
  - [  -0.0044342945329845, -0.0020189678762108,  0.0006098485318944 ]
  - [  -0.0044315196573734, -0.0020184940658510,  0.0006394592346624 ]
  - [   0.0004314854741096, -0.0020564331207424, -0.0001026781028486 ]
  - [   0.0004323385655880, -0.0020530391484499, -0.0001029595732689 ]
  - [   0.0005630967207253, -0.0019780644215643,  0.0002168091014028 ]
  - [   0.0005582273006439, -0.0019809051882476,  0.0002011628821492 ]
  - [   0.0006631817668676, -0.0027374231722206,  0.0001381887122989 ]
  - [   0.0006630818825215, -0.0027481480501592,  0.0001459761697333 ]
  - [   0.0033189472742379, -0.0010333762038499, -0.0039728367701173 ]
  - [   0.0004858335305471,  0.0001788514200598, -0.0000188455451280 ]
  - [   0.0001553004258312,  0.0008196274284273, -0.0003207278205082 ]
  - [   0.0002710416738410,  0.0000552703277208, -0.0002662552287802 ]
  - [   0.0004748140927404,  0.0001749269431457, -0.0000282234977931 ]
  - [   0.0032944213598967, -0.0010310555808246, -0.0039852145127952 ]
  - [   0.0002719486947171,  0.0000590166891925, -0.0002638326259330 ]
  - [   0.0001549671287648,  0.0008110450580716, -0.0003194534219801 ]
  - [   0.0007221949053928, -0.0021846320014447, -0.0018020290881395 ]
  - [   0.0001667257602094, -0.0003276765055489, -0.0009076897986233 ]
  - [   0.0004972601309419, -0.0001308945502387, -0.0003647129051387 ]
  - [   0.0002218700537924, -0.0002985819592141, -0.0008135014213622 ]