phonopy:
  version: "2.37.1"
  frequency_unit_conversion_factor: 15.633302
  symmetry_tolerance: 1.00000e-05

space_group:
  type: "Cmcm"
  number: 63
  Hall_symbol: "-C 2c 2"

primitive_matrix:
- [  0.000000000000000,  1.000000000000000, -0.000000000000000 ]
- [ -0.000000000000000,  0.000000000000000, -1.000000000000000 ]
- [ -1.000000000000000,  1.000000000000000,  0.000000000000000 ]

supercell_matrix:
- [   4,   0,   0 ]
- [   0,   4,   0 ]
- [   0,   0,   3 ]

primitive_cell:
  lattice:
  - [     1.388413077455675,    -0.000000349618530,    -4.487011989151346 ] # a
  - [     1.388413611625768,     0.000000349618530,     4.487011989151346 ] # b
  - [     0.000000147807792,    -3.070815083484444,     0.000000000000000 ] # c
  points:
  - symbol: Ga # 1
    coordinates: [  0.133618565645429,  0.866381442512023,  0.250000010518449 ]
    mass: 69.723000
  - symbol: Ga # 2
    coordinates: [  0.866381434319596,  0.133618557475297,  0.749999989543724 ]
    mass: 69.723000
  reciprocal_lattice: # without 2pi
  - [     0.360123303313104,     0.000000017333844,    -0.111432752440254 ] # a*
  - [     0.360123303313104,     0.000000017333844,     0.111432709568269 ] # b*
  - [     0.000000000000000,    -0.325646440053728,     0.000000025373685 ] # c*

unit_cell:
  lattice:
  - [     2.776826689081443,     0.000000000000000,     0.000000000000000 ] # a
  - [    -0.000000147807792,     3.070815083484443,     0.000000000000000 ] # b
  - [    -1.388413077455675,     0.000000349618530,     4.487011989151346 ] # c
  points:
  - symbol: Ga # 1
    coordinates: [  0.866381442512023,  0.749999989481551,  0.732762876866594 ]
    mass: 69.723000
    reduced_to: 1
  - symbol: Ga # 2
    coordinates: [  0.133618557475297,  0.250000010456276,  0.267237123155701 ]
    mass: 69.723000
    reduced_to: 2

supercell:
  lattice:
  - [    11.107306756325773,     0.000000000000000,     0.000000000000000 ] # a
  - [    -0.000000591231168,    12.283260333937772,     0.000000000000000 ] # b
  - [    -4.165239232367025,     0.000001048855589,    13.461035967454039 ] # c
  points:
  - symbol: Ga # 1
    coordinates: [  0.216595360628006,  0.187499997370388,  0.244254292288865 ]
    mass: 69.723000
    reduced_to: 1
  - symbol: Ga # 2
    coordinates: [  0.466595360628006,  0.187499997370388,  0.244254292288865 ]
    mass: 69.723000
    reduced_to: 1
  - symbol: Ga # 3
    coordinates: [  0.716595360628006,  0.187499997370388,  0.244254292288865 ]
    mass: 69.723000
    reduced_to: 1
  - symbol: Ga # 4
    coordinates: [  0.966595360628006,  0.187499997370388,  0.244254292288865 ]
    mass: 69.723000
    reduced_to: 1
  - symbol: Ga # 5
    coordinates: [  0.216595360628006,  0.437499997370388,  0.244254292288865 ]
    mass: 69.723000
    reduced_to: 1
  - symbol: Ga # 6
    coordinates: [  0.466595360628006,  0.437499997370388,  0.244254292288865 ]
    mass: 69.723000
    reduced_to: 1
  - symbol: Ga # 7
    coordinates: [  0.716595360628006,  0.437499997370388,  0.244254292288865 ]
    mass: 69.723000
    reduced_to: 1
  - symbol: Ga # 8
    coordinates: [  0.966595360628006,  0.437499997370388,  0.244254292288865 ]
    mass: 69.723000
    reduced_to: 1
  - symbol: Ga # 9
    coordinates: [  0.216595360628006,  0.687499997370388,  0.244254292288865 ]
    mass: 69.723000
    reduced_to: 1
  - symbol: Ga # 10
    coordinates: [  0.466595360628006,  0.687499997370388,  0.244254292288865 ]
    mass: 69.723000
    reduced_to: 1
  - symbol: Ga # 11
    coordinates: [  0.716595360628006,  0.687499997370388,  0.244254292288865 ]
    mass: 69.723000
    reduced_to: 1
  - symbol: Ga # 12
    coordinates: [  0.966595360628006,  0.687499997370388,  0.244254292288865 ]
    mass: 69.723000
    reduced_to: 1
  - symbol: Ga # 13
    coordinates: [  0.216595360628006,  0.937499997370388,  0.244254292288865 ]
    mass: 69.723000
    reduced_to: 1
  - symbol: Ga # 14
    coordinates: [  0.466595360628006,  0.937499997370388,  0.244254292288865 ]
    mass: 69.723000
    reduced_to: 1
  - symbol: Ga # 15
    coordinates: [  0.716595360628006,  0.937499997370388,  0.244254292288865 ]
    mass: 69.723000
    reduced_to: 1
  - symbol: Ga # 16
    coordinates: [  0.966595360628006,  0.937499997370388,  0.244254292288865 ]
    mass: 69.723000
    reduced_to: 1
  - symbol: Ga # 17
    coordinates: [  0.216595360628006,  0.187499997370388,  0.577587625622198 ]
    mass: 69.723000
    reduced_to: 1
  - symbol: Ga # 18
    coordinates: [  0.466595360628006,  0.187499997370388,  0.577587625622198 ]
    mass: 69.723000
    reduced_to: 1
  - symbol: Ga # 19
    coordinates: [  0.716595360628006,  0.187499997370388,  0.577587625622198 ]
    mass: 69.723000
    reduced_to: 1
  - symbol: Ga # 20
    coordinates: [  0.966595360628006,  0.187499997370388,  0.577587625622198 ]
    mass: 69.723000
    reduced_to: 1
  - symbol: Ga # 21
    coordinates: [  0.216595360628006,  0.437499997370388,  0.577587625622198 ]
    mass: 69.723000
    reduced_to: 1
  - symbol: Ga # 22
    coordinates: [  0.466595360628006,  0.437499997370388,  0.577587625622198 ]
    mass: 69.723000
    reduced_to: 1
  - symbol: Ga # 23
    coordinates: [  0.716595360628006,  0.437499997370388,  0.577587625622198 ]
    mass: 69.723000
    reduced_to: 1
  - symbol: Ga # 24
    coordinates: [  0.966595360628006,  0.437499997370388,  0.577587625622198 ]
    mass: 69.723000
    reduced_to: 1
  - symbol: Ga # 25
    coordinates: [  0.216595360628006,  0.687499997370388,  0.577587625622198 ]
    mass: 69.723000
    reduced_to: 1
  - symbol: Ga # 26
    coordinates: [  0.466595360628006,  0.687499997370388,  0.577587625622198 ]
    mass: 69.723000
    reduced_to: 1
  - symbol: Ga # 27
    coordinates: [  0.716595360628006,  0.687499997370388,  0.577587625622198 ]
    mass: 69.723000
    reduced_to: 1
  - symbol: Ga # 28
    coordinates: [  0.966595360628006,  0.687499997370388,  0.577587625622198 ]
    mass: 69.723000
    reduced_to: 1
  - symbol: Ga # 29
    coordinates: [  0.216595360628006,  0.937499997370388,  0.577587625622198 ]
    mass: 69.723000
    reduced_to: 1
  - symbol: Ga # 30
    coordinates: [  0.466595360628006,  0.937499997370388,  0.577587625622198 ]
    mass: 69.723000
    reduced_to: 1
  - symbol: Ga # 31
    coordinates: [  0.716595360628006,  0.937499997370388,  0.577587625622198 ]
    mass: 69.723000
    reduced_to: 1
  - symbol: Ga # 32
    coordinates: [  0.966595360628006,  0.937499997370388,  0.577587625622198 ]
    mass: 69.723000
    reduced_to: 1
  - symbol: Ga # 33
    coordinates: [  0.216595360628006,  0.187499997370388,  0.910920958955531 ]
    mass: 69.723000
    reduced_to: 1
  - symbol: Ga # 34
    coordinates: [  0.466595360628006,  0.187499997370388,  0.910920958955531 ]
    mass: 69.723000
    reduced_to: 1
  - symbol: Ga # 35
    coordinates: [  0.716595360628006,  0.187499997370388,  0.910920958955531 ]
    mass: 69.723000
    reduced_to: 1
  - symbol: Ga # 36
    coordinates: [  0.966595360628006,  0.187499997370388,  0.910920958955531 ]
    mass: 69.723000
    reduced_to: 1
  - symbol: Ga # 37
    coordinates: [  0.216595360628006,  0.437499997370388,  0.910920958955531 ]
    mass: 69.723000
    reduced_to: 1
  - symbol: Ga # 38
    coordinates: [  0.466595360628006,  0.437499997370388,  0.910920958955531 ]
    mass: 69.723000
    reduced_to: 1
  - symbol: Ga # 39
    coordinates: [  0.716595360628006,  0.437499997370388,  0.910920958955531 ]
    mass: 69.723000
    reduced_to: 1
  - symbol: Ga # 40
    coordinates: [  0.966595360628006,  0.437499997370388,  0.910920958955531 ]
    mass: 69.723000
    reduced_to: 1
  - symbol: Ga # 41
    coordinates: [  0.216595360628006,  0.687499997370388,  0.910920958955531 ]
    mass: 69.723000
    reduced_to: 1
  - symbol: Ga # 42
    coordinates: [  0.466595360628006,  0.687499997370388,  0.910920958955531 ]
    mass: 69.723000
    reduced_to: 1
  - symbol: Ga # 43
    coordinates: [  0.716595360628006,  0.687499997370388,  0.910920958955531 ]
    mass: 69.723000
    reduced_to: 1
  - symbol: Ga # 44
    coordinates: [  0.966595360628006,  0.687499997370388,  0.910920958955531 ]
    mass: 69.723000
    reduced_to: 1
  - symbol: Ga # 45
    coordinates: [  0.216595360628006,  0.937499997370388,  0.910920958955531 ]
    mass: 69.723000
    reduced_to: 1
  - symbol: Ga # 46
    coordinates: [  0.466595360628006,  0.937499997370388,  0.910920958955531 ]
    mass: 69.723000
    reduced_to: 1
  - symbol: Ga # 47
    coordinates: [  0.716595360628006,  0.937499997370388,  0.910920958955531 ]
    mass: 69.723000
    reduced_to: 1
  - symbol: Ga # 48
    coordinates: [  0.966595360628006,  0.937499997370388,  0.910920958955531 ]
    mass: 69.723000
    reduced_to: 1
  - symbol: Ga # 49
    coordinates: [  0.033404639368824,  0.062500002614069,  0.089079041051900 ]
    mass: 69.723000
    reduced_to: 49
  - symbol: Ga # 50
    coordinates: [  0.283404639368824,  0.062500002614069,  0.089079041051900 ]
    mass: 69.723000
    reduced_to: 49
  - symbol: Ga # 51
    coordinates: [  0.533404639368824,  0.062500002614069,  0.089079041051900 ]
    mass: 69.723000
    reduced_to: 49
  - symbol: Ga # 52
    coordinates: [  0.783404639368824,  0.062500002614069,  0.089079041051900 ]
    mass: 69.723000
    reduced_to: 49
  - symbol: Ga # 53
    coordinates: [  0.033404639368824,  0.312500002614069,  0.089079041051900 ]
    mass: 69.723000
    reduced_to: 49
  - symbol: Ga # 54
    coordinates: [  0.283404639368824,  0.312500002614069,  0.089079041051900 ]
    mass: 69.723000
    reduced_to: 49
  - symbol: Ga # 55
    coordinates: [  0.533404639368824,  0.312500002614069,  0.089079041051900 ]
    mass: 69.723000
    reduced_to: 49
  - symbol: Ga # 56
    coordinates: [  0.783404639368824,  0.312500002614069,  0.089079041051900 ]
    mass: 69.723000
    reduced_to: 49
  - symbol: Ga # 57
    coordinates: [  0.033404639368824,  0.562500002614069,  0.089079041051900 ]
    mass: 69.723000
    reduced_to: 49
  - symbol: Ga # 58
    coordinates: [  0.283404639368824,  0.562500002614069,  0.089079041051900 ]
    mass: 69.723000
    reduced_to: 49
  - symbol: Ga # 59
    coordinates: [  0.533404639368824,  0.562500002614069,  0.089079041051900 ]
    mass: 69.723000
    reduced_to: 49
  - symbol: Ga # 60
    coordinates: [  0.783404639368824,  0.562500002614069,  0.089079041051900 ]
    mass: 69.723000
    reduced_to: 49
  - symbol: Ga # 61
    coordinates: [  0.033404639368824,  0.812500002614069,  0.089079041051900 ]
    mass: 69.723000
    reduced_to: 49
  - symbol: Ga # 62
    coordinates: [  0.283404639368824,  0.812500002614069,  0.089079041051900 ]
    mass: 69.723000
    reduced_to: 49
  - symbol: Ga # 63
    coordinates: [  0.533404639368824,  0.812500002614069,  0.089079041051900 ]
    mass: 69.723000
    reduced_to: 49
  - symbol: Ga # 64
    coordinates: [  0.783404639368824,  0.812500002614069,  0.089079041051900 ]
    mass: 69.723000
    reduced_to: 49
  - symbol: Ga # 65
    coordinates: [  0.033404639368824,  0.062500002614069,  0.422412374385234 ]
    mass: 69.723000
    reduced_to: 49
  - symbol: Ga # 66
    coordinates: [  0.283404639368824,  0.062500002614069,  0.422412374385234 ]
    mass: 69.723000
    reduced_to: 49
  - symbol: Ga # 67
    coordinates: [  0.533404639368824,  0.062500002614069,  0.422412374385234 ]
    mass: 69.723000
    reduced_to: 49
  - symbol: Ga # 68
    coordinates: [  0.783404639368824,  0.062500002614069,  0.422412374385234 ]
    mass: 69.723000
    reduced_to: 49
  - symbol: Ga # 69
    coordinates: [  0.033404639368824,  0.312500002614069,  0.422412374385234 ]
    mass: 69.723000
    reduced_to: 49
  - symbol: Ga # 70
    coordinates: [  0.283404639368824,  0.312500002614069,  0.422412374385234 ]
    mass: 69.723000
    reduced_to: 49
  - symbol: Ga # 71
    coordinates: [  0.533404639368824,  0.312500002614069,  0.422412374385234 ]
    mass: 69.723000
    reduced_to: 49
  - symbol: Ga # 72
    coordinates: [  0.783404639368824,  0.312500002614069,  0.422412374385234 ]
    mass: 69.723000
    reduced_to: 49
  - symbol: Ga # 73
    coordinates: [  0.033404639368824,  0.562500002614069,  0.422412374385234 ]
    mass: 69.723000
    reduced_to: 49
  - symbol: Ga # 74
    coordinates: [  0.283404639368824,  0.562500002614069,  0.422412374385234 ]
    mass: 69.723000
    reduced_to: 49
  - symbol: Ga # 75
    coordinates: [  0.533404639368824,  0.562500002614069,  0.422412374385234 ]
    mass: 69.723000
    reduced_to: 49
  - symbol: Ga # 76
    coordinates: [  0.783404639368824,  0.562500002614069,  0.422412374385234 ]
    mass: 69.723000
    reduced_to: 49
  - symbol: Ga # 77
    coordinates: [  0.033404639368824,  0.812500002614069,  0.422412374385234 ]
    mass: 69.723000
    reduced_to: 49
  - symbol: Ga # 78
    coordinates: [  0.283404639368824,  0.812500002614069,  0.422412374385234 ]
    mass: 69.723000
    reduced_to: 49
  - symbol: Ga # 79
    coordinates: [  0.533404639368824,  0.812500002614069,  0.422412374385234 ]
    mass: 69.723000
    reduced_to: 49
  - symbol: Ga # 80
    coordinates: [  0.783404639368824,  0.812500002614069,  0.422412374385234 ]
    mass: 69.723000
    reduced_to: 49
  - symbol: Ga # 81
    coordinates: [  0.033404639368824,  0.062500002614069,  0.755745707718567 ]
    mass: 69.723000
    reduced_to: 49
  - symbol: Ga # 82
    coordinates: [  0.283404639368824,  0.062500002614069,  0.755745707718567 ]
    mass: 69.723000
    reduced_to: 49
  - symbol: Ga # 83
    coordinates: [  0.533404639368824,  0.062500002614069,  0.755745707718567 ]
    mass: 69.723000
    reduced_to: 49
  - symbol: Ga # 84
    coordinates: [  0.783404639368824,  0.062500002614069,  0.755745707718567 ]
    mass: 69.723000
    reduced_to: 49
  - symbol: Ga # 85
    coordinates: [  0.033404639368824,  0.312500002614069,  0.755745707718567 ]
    mass: 69.723000
    reduced_to: 49
  - symbol: Ga # 86
    coordinates: [  0.283404639368824,  0.312500002614069,  0.755745707718567 ]
    mass: 69.723000
    reduced_to: 49
  - symbol: Ga # 87
    coordinates: [  0.533404639368824,  0.312500002614069,  0.755745707718567 ]
    mass: 69.723000
    reduced_to: 49
  - symbol: Ga # 88
    coordinates: [  0.783404639368824,  0.312500002614069,  0.755745707718567 ]
    mass: 69.723000
    reduced_to: 49
  - symbol: Ga # 89
    coordinates: [  0.033404639368824,  0.562500002614069,  0.755745707718567 ]
    mass: 69.723000
    reduced_to: 49
  - symbol: Ga # 90
    coordinates: [  0.283404639368824,  0.562500002614069,  0.755745707718567 ]
    mass: 69.723000
    reduced_to: 49
  - symbol: Ga # 91
    coordinates: [  0.533404639368824,  0.562500002614069,  0.755745707718567 ]
    mass: 69.723000
    reduced_to: 49
  - symbol: Ga # 92
    coordinates: [  0.783404639368824,  0.562500002614069,  0.755745707718567 ]
    mass: 69.723000
    reduced_to: 49
  - symbol: Ga # 93
    coordinates: [  0.033404639368824,  0.812500002614069,  0.755745707718567 ]
    mass: 69.723000
    reduced_to: 49
  - symbol: Ga # 94
    coordinates: [  0.283404639368824,  0.812500002614069,  0.755745707718567 ]
    mass: 69.723000
    reduced_to: 49
  - symbol: Ga # 95
    coordinates: [  0.533404639368824,  0.812500002614069,  0.755745707718567 ]
    mass: 69.723000
    reduced_to: 49
  - symbol: Ga # 96
    coordinates: [  0.783404639368824,  0.812500002614069,  0.755745707718567 ]
    mass: 69.723000
    reduced_to: 49

displacements:
- atom:    1
  displacement:
    [   0.0067071009527457,  0.0074171960207128,  0.0000000000000000 ]
  forces:
  - [  -0.0172309223562479, -0.0084164654836059, -0.0570610314607620 ]
  - [   0.0102289812639356, -0.0007646457524970, -0.0574483275413513 ]
  - [  -0.0043172147125006,  0.0002370483562117, -0.0570496544241905 ]
  - [   0.0100503321737051, -0.0007084946264513, -0.0566881708800793 ]
  - [   0.0003535806899890,  0.0033343974500895, -0.0570148974657059 ]
  - [  -0.0004723866586573, -0.0005133582744747, -0.0573299303650856 ]
  - [  -0.0003127910313196, -0.0000226277079491, -0.0571143589913845 ]
  - [   0.0000095739378594, -0.0000622605439276, -0.0571484342217445 ]
  - [  -0.0000456624948129,  0.0003306987346150, -0.0570527985692024 ]
  - [   0.0000207501434488, -0.0002185733173974, -0.0570607073605061 ]
  - [   0.0000197811168619,  0.0000143807592394, -0.0570546612143517 ]
  - [   0.0000194622116396, -0.0002174002293032, -0.0570494607090950 ]
  - [   0.0003656889894046,  0.0032195160165429, -0.0570842549204826 ]
  - [   0.0000210807484109, -0.0000779268011684, -0.0569565892219543 ]
  - [  -0.0003106779768132, -0.0000339851430908, -0.0569935999810696 ]
  - [  -0.0004551075398922, -0.0004923687083647, -0.0567812286317348 ]
  - [   0.0000941460020840, -0.0002295895683346, -0.0569282844662666 ]
  - [   0.0000916222634260, -0.0002364910906181, -0.0571665018796921 ]
  - [  -0.0000526180810994,  0.0000278881998383, -0.0572054088115692 ]
  - [  -0.0000619647471467,  0.0000335222393915, -0.0569011382758617 ]
  - [   0.0000114709619083, -0.0001867746759672, -0.0574209094047546 ]
  - [  -0.0002251238620374, -0.0003094782587141, -0.0575683675706387 ]
  - [   0.0000789579498814, -0.0000017228230718, -0.0570675730705261 ]
  - [  -0.0000354727962986, -0.0000360947487934, -0.0570617988705635 ]
  - [  -0.0000141862437886,  0.0002601555897854, -0.0570594295859337 ]
  - [  -0.0000213820421777,  0.0002637468278408, -0.0570436269044876 ]
  - [   0.0000182789717655,  0.0000096436997410, -0.0570493116974831 ]
  - [   0.0000168909027707,  0.0000055757336668, -0.0570657961070538 ]
  - [  -0.0002148807980120, -0.0003040079027414, -0.0565370395779610 ]
  - [   0.0000074584968388, -0.0001769829541445, -0.0566849187016487 ]
  - [  -0.0000345403059328, -0.0000348255707650, -0.0570517107844353 ]
  - [   0.0000741583789932, -0.0000028707472666, -0.0570488348603249 ]
  - [   0.0000971782428678, -0.0002332714066142, -0.0571678653359413 ]
  - [  -0.0000579360203119,  0.0000326381232298, -0.0568657368421555 ]
  - [  -0.0000560870248592,  0.0000291585783998, -0.0572410970926285 ]
  - [   0.0000877818965819, -0.0002325089735677, -0.0569461509585381 ]
  - [  -0.0001710960932542, -0.0003505866043270, -0.0566739365458488 ]
  - [   0.0000373095426767,  0.0000301770487567, -0.0571263581514359 ]
  - [   0.0000027991918614, -0.0000700077507645, -0.0570009872317314 ]
  - [  -0.0000389907327190, -0.0001399490865879, -0.0568223632872105 ]
  - [  -0.0000163811928360,  0.0002620670711622, -0.0570821315050125 ]
  - [   0.0000191497674678,  0.0000061736209318, -0.0570571050047874 ]
  - [   0.0000169041159097,  0.0000097437623481, -0.0570559427142143 ]
  - [  -0.0000191720355360,  0.0002642544277478, -0.0570240840315819 ]
  - [  -0.0000333836505888, -0.0001419738982804, -0.0572857223451138 ]
  - [   0.0000024387263693, -0.0000678359792801, -0.0571045503020287 ]
  - [   0.0000413583620684,  0.0000318125239573, -0.0569857582449913 ]
  - [  -0.0001782608451322, -0.0003445674083196, -0.0574232861399651 ]
  - [   0.0026884810067713,  0.0027453121729195,  0.0603493414819241 ]
  - [  -0.0010430903639644, -0.0006336570950225,  0.0567331165075302 ]
  - [  -0.0002284637303092, -0.0001142716791946,  0.0568701513111591 ]
  - [   0.0001698288979242,  0.0002512232167646,  0.0569272376596928 ]
  - [  -0.0010693845106289, -0.0006543681956828,  0.0573861412703991 ]
  - [   0.0027413924690336,  0.0027874645311385,  0.0536546595394611 ]
  - [   0.0001881321368273,  0.0002618380822241,  0.0571685805916786 ]
  - [  -0.0002305683010491, -0.0001104858820327,  0.0572334676980972 ]
  - [   0.0000958434538916, -0.0001981707464438,  0.0573070384562016 ]
  - [  -0.0001232736976817, -0.0003986104566138,  0.0575171262025833 ]
  - [  -0.0000399043929065, -0.0000725994905224,  0.0571428313851357 ]
  - [   0.0000306479341816, -0.0000111845729407,  0.0570930242538452 ]
  - [  -0.0001257447293028, -0.0004005755181424,  0.0565927885472775 ]
  - [   0.0000967261148617, -0.0001992961624637,  0.0568006560206413 ]
  - [   0.0000302720873151, -0.0000100379511423,  0.0570162907242775 ]
  - [  -0.0000396374089178, -0.0000723912526155,  0.0569680705666542 ]
  - [   0.0002362512022955,  0.0004332958778832,  0.0565910488367081 ]
  - [  -0.0000648193818051,  0.0012122801272199,  0.0536625981330872 ]
  - [  -0.0003688664291985, -0.0001301059091929,  0.0576503798365593 ]
  - [  -0.0000841818691697, -0.0000009797867051,  0.0570290647447109 ]
  - [  -0.0003890725201927, -0.0001231363276020,  0.0564709827303886 ]
  - [  -0.0000693308247719,  0.0012539125746116,  0.0605196952819824 ]
  - [   0.0002613137476146,  0.0004477824550122,  0.0575414374470711 ]
  - [  -0.0000783846044214,  0.0000051964652812,  0.0570876672863960 ]
  - [   0.0000555753213121, -0.0000049454356486,  0.0569260790944099 ]
  - [  -0.0000239678192884,  0.0001060582799255,  0.0568519085645676 ]
  - [  -0.0000666308915243, -0.0001148224328062,  0.0569745600223541 ]
  - [   0.0000360315898433, -0.0000020705226689,  0.0570566244423389 ]
  - [  -0.0000668550055707, -0.0001210471018567,  0.0571358948945999 ]
  - [  -0.0000231502053794,  0.0001054472522810,  0.0572527423501015 ]
  - [   0.0000574413425056, -0.0000083527047536,  0.0571826882660389 ]
  - [   0.0000354349322151, -0.0000016209955902,  0.0570516437292099 ]
  - [  -0.0000038740108721, -0.0000314744247589,  0.0570112466812134 ]
  - [   0.0000119678297779, -0.0000470223312732,  0.0570854432880878 ]
  - [  -0.0000235028164752, -0.0000278305960819,  0.0570732280611992 ]
  - [   0.0000157913782459, -0.0000275872516795,  0.0570660233497620 ]
  - [  -0.0000030043156585, -0.0000303192136926,  0.0570721030235291 ]
  - [  -0.0000051715724112, -0.0000626803157502,  0.0570394173264503 ]
  - [  -0.0000401475044782, -0.0000434595567640,  0.0569923967123032 ]
  - [   0.0000479437403555,  0.0000030428782338,  0.0570907108485699 ]
  - [  -0.0000246337003773,  0.0000273565237876,  0.0569627359509468 ]
  - [   0.0000397575422539,  0.0000755147484597,  0.0570935234427452 ]
  - [  -0.0000291342912533,  0.0000356076488970,  0.0571611225605011 ]
  - [   0.0000144096766235, -0.0000059297817643,  0.0570507049560547 ]
  - [  -0.0000159293413162,  0.0000346972774423,  0.0571397878229618 ]
  - [  -0.0000079951423686,  0.0000328851529048,  0.0569640398025513 ]
  - [  -0.0000284751877189,  0.0000354545081791,  0.0569337010383606 ]
  - [   0.0000530845863977,  0.0000297127953672,  0.0571300424635410 ]
- atom:    1
  displacement:
    [  -0.0067071009527457, -0.0074171960207128,  0.0000000000000000 ]
  forces:
  - [   0.0172307435423136,  0.0084170252084732, -0.0570606440305710 ]
  - [  -0.0100506842136383,  0.0007077859481797, -0.0566873736679554 ]
  - [   0.0043166815303266, -0.0002378399221925, -0.0570497214794159 ]
  - [  -0.0102288965135813,  0.0007641687989235, -0.0574487149715424 ]
  - [  -0.0003656854096334, -0.0032192354556173, -0.0570839457213879 ]
  - [   0.0004552036407404,  0.0004936142358929, -0.0567814111709595 ]
  - [   0.0003097315202467,  0.0000346521628671, -0.0569939389824867 ]
  - [  -0.0000210466532735,  0.0000786411983427, -0.0569572784006596 ]
  - [   0.0000457407659269, -0.0003318350645714, -0.0570525974035263 ]
  - [  -0.0000190585851669,  0.0002161541342502, -0.0570499747991562 ]
  - [  -0.0000207393968594, -0.0000145414014696, -0.0570546686649323 ]
  - [  -0.0000198744419322,  0.0002174188557547, -0.0570600479841232 ]
  - [  -0.0003534502466209, -0.0033336300402880, -0.0570158734917641 ]
  - [  -0.0000096858275356,  0.0000630772919976, -0.0571480616927147 ]
  - [   0.0003122786874883,  0.0000233184291574, -0.0571136996150017 ]
  - [   0.0004723444581032,  0.0005145645700395, -0.0573292933404446 ]
  - [  -0.0000959266908467,  0.0002323844673811, -0.0571700558066368 ]
  - [  -0.0000889073999133,  0.0002342221559957, -0.0569326430559158 ]
  - [   0.0000557217681489, -0.0000283289264189, -0.0568979904055595 ]
  - [   0.0000568663526792, -0.0000320113904309, -0.0572012364864349 ]
  - [  -0.0000077267250163,  0.0001805286447052, -0.0566929951310158 ]
  - [   0.0002196906280005,  0.0003065539058298, -0.0565415397286415 ]
  - [  -0.0000775320295361,  0.0000004231842468, -0.0570400692522526 ]
  - [   0.0000324521097355,  0.0000330440234393, -0.0570469647645950 ]
  - [   0.0000186476245290, -0.0002610915980767, -0.0570510923862457 ]
  - [   0.0000168339793163, -0.0002651023678482, -0.0570658966898918 ]
  - [  -0.0000147334376379, -0.0000087750886451, -0.0570582821965218 ]
  - [  -0.0000212295708479, -0.0000055260643421, -0.0570418462157249 ]
  - [   0.0002184524200857,  0.0003075225977227, -0.0575727708637714 ]
  - [  -0.0000080890022218,  0.0001845667138696, -0.0574300661683083 ]
  - [   0.0000332818599418,  0.0000382424841519, -0.0570575892925262 ]
  - [  -0.0000744810531614,  0.0000047299581638, -0.0570593215525150 ]
  - [  -0.0000928300287342,  0.0002285282826051, -0.0569416433572769 ]
  - [   0.0000614518212387, -0.0000326058579958, -0.0572460554540157 ]
  - [   0.0000519273162354, -0.0000276465179923, -0.0568695999681950 ]
  - [  -0.0000928594381548,  0.0002382996317465, -0.0571633912622929 ]
  - [   0.0001706273615127,  0.0003436268016230, -0.0574193671345711 ]
  - [  -0.0000371985552192, -0.0000297602055070, -0.0569838061928749 ]
  - [  -0.0000019526632968,  0.0000694245245541, -0.0571071393787861 ]
  - [   0.0000348522007698,  0.0001409952092217, -0.0572867393493652 ]
  - [   0.0000167994730873, -0.0002593416720629, -0.0570275560021400 ]
  - [  -0.0000192814295588, -0.0000045229753596, -0.0570522323250771 ]
  - [  -0.0000157941976795, -0.0000085066458269, -0.0570535361766815 ]
  - [   0.0000189115817193, -0.0002646752109285, -0.0570848062634468 ]
  - [   0.0000385263992939,  0.0001427984825568, -0.0568256005644798 ]
  - [  -0.0000044893386075,  0.0000684922779328, -0.0570053011178970 ]
  - [  -0.0000418521231040, -0.0000318860038533, -0.0571246817708015 ]
  - [   0.0001765273918863,  0.0003521560865920, -0.0566703975200653 ]
  - [  -0.0027412555646151, -0.0027883995790035,  0.0536551326513290 ]
  - [   0.0010698689147830,  0.0006541150505655,  0.0573862567543983 ]
  - [   0.0002302718785359,  0.0001099781220546,  0.0572349503636360 ]
  - [  -0.0001885951787699, -0.0002628769725561,  0.0571693815290928 ]
  - [   0.0010429130634293,  0.0006326530128717,  0.0567324012517929 ]
  - [  -0.0026885953266174, -0.0027463021688163,  0.0603492297232151 ]
  - [  -0.0001692829246167, -0.0002516291860957,  0.0569266341626644 ]
  - [   0.0002276276063640,  0.0001133356272476,  0.0568691380321980 ]
  - [  -0.0000984681973932,  0.0001990027521970,  0.0568009093403816 ]
  - [   0.0001270474458579,  0.0003997499297839,  0.0565923675894737 ]
  - [   0.0000390649511246,  0.0000718163282727,  0.0569685362279415 ]
  - [  -0.0000286317954306,  0.0000093859671324,  0.0570166148245335 ]
  - [   0.0001243919396074,  0.0003986095834989,  0.0575167872011662 ]
  - [  -0.0000967538508121,  0.0001977842766792,  0.0573059394955635 ]
  - [  -0.0000287925067823,  0.0000098662058008,  0.0570928901433945 ]
  - [   0.0000391897920053,  0.0000721591204638,  0.0571422204375267 ]
  - [  -0.0002607078058645, -0.0004477836773731,  0.0575403049588203 ]
  - [   0.0000694251502864, -0.0012528122169897,  0.0605182275176048 ]
  - [   0.0003891178057529,  0.0001234475930687,  0.0564699023962021 ]
  - [   0.0000785712472862, -0.0000048334322855,  0.0570861585438251 ]
  - [   0.0003691538586281,  0.0001309608051088,  0.0576504096388817 ]
  - [   0.0000649057037663, -0.0012114888522774,  0.0536632761359215 ]
  - [  -0.0002358588972129, -0.0004336592974141,  0.0565927736461163 ]
  - [   0.0000840785796754,  0.0000011234205886,  0.0570306628942490 ]
  - [  -0.0000547607778572,  0.0000081505313574,  0.0571827441453934 ]
  - [   0.0000218847417273, -0.0001060698123183,  0.0572528503835201 ]
  - [   0.0000694469053997,  0.0001208485264215,  0.0571368411183357 ]
  - [  -0.0000370743509848,  0.0000017847453364,  0.0570513010025024 ]
  - [   0.0000685734994477,  0.0001139895903179,  0.0569745004177094 ]
  - [   0.0000231154554058, -0.0001071443839464,  0.0568512231111526 ]
  - [  -0.0000532895210199,  0.0000052523464547,  0.0569255352020264 ]
  - [  -0.0000376185344066,  0.0000026076531867,  0.0570573359727859 ]
  - [   0.0000034727854654,  0.0000306974689011,  0.0570966973900795 ]
  - [  -0.0000130785010697,  0.0000460991468572,  0.0570250153541565 ]
  - [   0.0000223138995352,  0.0000275459969998,  0.0570360273122787 ]
  - [  -0.0000128187493829,  0.0000261447930825,  0.0570423044264317 ]
  - [   0.0000026979905670,  0.0000301208638120,  0.0570347011089325 ]
  - [   0.0000041252060328,  0.0000618247649982,  0.0570665635168552 ]
  - [   0.0000403540543630,  0.0000430870495620,  0.0571142733097076 ]
  - [  -0.0000472494612040, -0.0000038326688809,  0.0570159219205379 ]
  - [   0.0000254291444435, -0.0000265478593064,  0.0571470186114311 ]
  - [  -0.0000408569394494, -0.0000766181110521,  0.0570140555500984 ]
  - [   0.0000291046089842, -0.0000359080331691,  0.0569446980953217 ]
  - [  -0.0000135921191031,  0.0000062884537329,  0.0570571273565292 ]
  - [   0.0000185035169125, -0.0000342428720614,  0.0569716803729534 ]
  - [   0.0000070848764153, -0.0000326606932504,  0.0571465753018856 ]
  - [   0.0000293264165521, -0.0000360082740372,  0.0571743585169315 ]
  - [  -0.0000540693290532, -0.0000297139049508,  0.0569790042936802 ]
- atom:    1
  displacement:
    [  -0.0029560135370228,  0.0000000007443585,  0.0095531138362807 ]
  forces:
  - [   0.0075922398827970,  0.0000003018571704, -0.0717392116785049 ]
  - [  -0.0039466414600611,  0.0000001351581886, -0.0585570782423019 ]
  - [   0.0019084620289505, -0.0000004227120201, -0.0565274320542812 ]
  - [  -0.0050313668325543, -0.0000003888818014, -0.0589524433016777 ]
  - [  -0.0001583616249263, -0.0000328409660142, -0.0583906546235085 ]
  - [   0.0002328658447368,  0.0003419047861826, -0.0567001029849052 ]
  - [   0.0001362088223686,  0.0000781506896601, -0.0570293217897415 ]
  - [  -0.0000345923472196,  0.0001552206813358, -0.0567795298993587 ]
  - [   0.0000200361537281, -0.0000003166205715, -0.0572172291576862 ]