phonopy:
  version: "2.37.1"
  frequency_unit_conversion_factor: 15.633302
  symmetry_tolerance: 1.00000e-05

space_group:
  type: "P1"
  number: 1
  Hall_symbol: "P 1"

primitive_matrix:
- [  1.000000000000000,  0.000000000000000,  0.000000000000000 ]
- [  0.000000000000000, -1.000000000000000, -1.000000000000000 ]
- [  0.000000000000000,  0.000000000000000, -1.000000000000000 ]

supercell_matrix:
- [   2,   0,   0 ]
- [   0,   2,   0 ]
- [   0,   0,   1 ]

primitive_cell:
  lattice:
  - [     5.616437298130199,     0.000000000000000,     0.000000000000000 ] # a
  - [     0.004255112549291,    -8.191460464132421,     0.000000000000000 ] # b
  - [     2.803189147057547,    -2.803411333694990,    -8.895161247887277 ] # c
  points:
  - symbol: Li # 1
    coordinates: [  0.219758882286519,  0.554332804112763,  0.482957067088618 ]
    mass: 6.940000
  - symbol: Li # 2
    coordinates: [  0.439091619794801,  0.109381083493476,  0.041545650076528 ]
    mass: 6.940000
  - symbol: Li # 3
    coordinates: [  0.881829965823268,  0.055136059952821,  0.484273765084726 ]
    mass: 6.940000
  - symbol: Li # 4
    coordinates: [  0.995825347461669,  0.997903253594179,  0.921473330930143 ]
    mass: 6.940000
  - symbol: Li # 5
    coordinates: [  0.106548079392548,  0.609394635720749,  0.042385806877510 ]
    mass: 6.940000
  - symbol: Li # 6
    coordinates: [  0.670501826327875,  0.498525223347279,  0.920426213735681 ]
    mass: 6.940000
  - symbol: Ga # 7
    coordinates: [  0.662899432372981,  0.669316566972265,  0.592713458274447 ]
    mass: 69.723000
  - symbol: Ga # 8
    coordinates: [  0.330563351394876,  0.169932147693311,  0.592646211458261 ]
    mass: 69.723000
  - symbol: Sn # 9
    coordinates: [  0.565753821920794,  0.721131839563603,  0.138967108071640 ]
    mass: 118.710000
  - symbol: Sn # 10
    coordinates: [  0.435486049102572,  0.940174574825878,  0.383978788142701 ]
    mass: 118.710000
  - symbol: Sn # 11
    coordinates: [  0.011882951615735,  0.835781209196268,  0.254609134214232 ]
    mass: 118.710000
  - symbol: Sn # 12
    coordinates: [  0.765995057581466,  0.439724185762887,  0.384327864168375 ]
    mass: 118.710000
  - symbol: Sn # 13
    coordinates: [  0.795189508857809,  0.270434310837646,  0.713602968362514 ]
    mass: 118.710000
  - symbol: Sn # 14
    coordinates: [  0.530903176220737,  0.894598991181203,  0.814526129838764 ]
    mass: 118.710000
  - symbol: Sn # 15
    coordinates: [  0.078547685278170,  0.770902041717216,  0.713123343740202 ]
    mass: 118.710000
  - symbol: Sn # 16
    coordinates: [  0.320056364065698,  0.335232416861028,  0.254115823813878 ]
    mass: 118.710000
  - symbol: Sn # 17
    coordinates: [  0.881851146439375,  0.221006964299793,  0.138952378507324 ]
    mass: 118.710000
  - symbol: Sn # 18
    coordinates: [  0.241273735726367,  0.394232312975365,  0.814169742167056 ]
    mass: 118.710000
  reciprocal_lattice: # without 2pi
  - [     0.178048814028942,     0.000092488726068,     0.056080514482858 ] # a*
  - [     0.000000000000000,    -0.122078352740473,     0.038474382659757 ] # b*
  - [     0.000000000000000,    -0.000000000000000,    -0.112420671433867 ] # c*

unit_cell:
  lattice:
  - [     5.616437298130199,     0.000000000000000,     0.000000000000000 ] # a
  - [    -0.004255112549291,     8.191460464132419,     0.000000000000000 ] # b
  - [    -2.798934034508256,    -5.388049130437431,     8.895161247887277 ] # c
  points:
  - symbol: Li # 1
    coordinates: [  0.219758882286519,  0.962710128798619,  0.517042932911382 ]
    mass: 6.940000
    reduced_to: 1
  - symbol: Li # 2
    coordinates: [  0.439091619794801,  0.849073266429996,  0.958454349923472 ]
    mass: 6.940000
    reduced_to: 2
  - symbol: Li # 3
    coordinates: [  0.881829965823268,  0.460590174962453,  0.515726234915274 ]
    mass: 6.940000
    reduced_to: 3
  - symbol: Li # 4
    coordinates: [  0.995825347461669,  0.080623415475677,  0.078526669069857 ]
    mass: 6.940000
    reduced_to: 4
  - symbol: Li # 5
    coordinates: [  0.106548079392548,  0.348219557401741,  0.957614193122490 ]
    mass: 6.940000
    reduced_to: 5
  - symbol: Li # 6
    coordinates: [  0.670501826327875,  0.581048562917041,  0.079573786264319 ]
    mass: 6.940000
    reduced_to: 6
  - symbol: Ga # 7
    coordinates: [  0.662899432372981,  0.737969974753289,  0.407286541725553 ]
    mass: 69.723000
    reduced_to: 7
  - symbol: Ga # 8
    coordinates: [  0.330563351394876,  0.237421640848428,  0.407353788541739 ]
    mass: 69.723000
    reduced_to: 8
  - symbol: Sn # 9
    coordinates: [  0.565753821920794,  0.139901052364757,  0.861032891928360 ]
    mass: 118.710000
    reduced_to: 9
  - symbol: Sn # 10
    coordinates: [  0.435486049102572,  0.675846637031421,  0.616021211857299 ]
    mass: 118.710000
    reduced_to: 10
  - symbol: Sn # 11
    coordinates: [  0.011882951615735,  0.909609656589500,  0.745390865785768 ]
    mass: 118.710000
    reduced_to: 11
  - symbol: Sn # 12
    coordinates: [  0.765995057581466,  0.175947950068738,  0.615672135831625 ]
    mass: 118.710000
    reduced_to: 12
  - symbol: Sn # 13
    coordinates: [  0.795189508857809,  0.015962720799840,  0.286397031637486 ]
    mass: 118.710000
    reduced_to: 13
  - symbol: Sn # 14
    coordinates: [  0.530903176220737,  0.290874878980033,  0.185473870161236 ]
    mass: 118.710000
    reduced_to: 14
  - symbol: Sn # 15
    coordinates: [  0.078547685278170,  0.515974614542582,  0.286876656259798 ]
    mass: 118.710000
    reduced_to: 15
  - symbol: Sn # 16
    coordinates: [  0.320056364065698,  0.410651759325094,  0.745884176186122 ]
    mass: 118.710000
    reduced_to: 16
  - symbol: Sn # 17
    coordinates: [  0.881851146439375,  0.640040657192883,  0.861047621492676 ]
    mass: 118.710000
    reduced_to: 17
  - symbol: Sn # 18
    coordinates: [  0.241273735726367,  0.791597944857580,  0.185830257832944 ]
    mass: 118.710000
    reduced_to: 18

supercell:
  lattice:
  - [    11.232874596260398,     0.000000000000000,     0.000000000000000 ] # a
  - [    -0.008510225098582,    16.382920928264838,     0.000000000000000 ] # b
  - [    -2.798934034508256,    -5.388049130437431,     8.895161247887277 ] # c
  points:
  - symbol: Li # 1
    coordinates: [  0.109879441143259,  0.481355064399310,  0.517042932911382 ]
    mass: 6.940000
    reduced_to: 1
  - symbol: Li # 2
    coordinates: [  0.609879441143259,  0.481355064399310,  0.517042932911382 ]
    mass: 6.940000
    reduced_to: 1
  - symbol: Li # 3
    coordinates: [  0.109879441143259,  0.981355064399310,  0.517042932911382 ]
    mass: 6.940000
    reduced_to: 1
  - symbol: Li # 4
    coordinates: [  0.609879441143259,  0.981355064399310,  0.517042932911382 ]
    mass: 6.940000
    reduced_to: 1
  - symbol: Li # 5
    coordinates: [  0.219545809897400,  0.424536633214998,  0.958454349923472 ]
    mass: 6.940000
    reduced_to: 5
  - symbol: Li # 6
    coordinates: [  0.719545809897400,  0.424536633214998,  0.958454349923472 ]
    mass: 6.940000
    reduced_to: 5
  - symbol: Li # 7
    coordinates: [  0.219545809897400,  0.924536633214998,  0.958454349923472 ]
    mass: 6.940000
    reduced_to: 5
  - symbol: Li # 8
    coordinates: [  0.719545809897400,  0.924536633214998,  0.958454349923472 ]
    mass: 6.940000
    reduced_to: 5
  - symbol: Li # 9
    coordinates: [  0.440914982911634,  0.230295087481227,  0.515726234915274 ]
    mass: 6.940000
    reduced_to: 9
  - symbol: Li # 10
    coordinates: [  0.940914982911634,  0.230295087481227,  0.515726234915274 ]
    mass: 6.940000
    reduced_to: 9
  - symbol: Li # 11
    coordinates: [  0.440914982911634,  0.730295087481227,  0.515726234915274 ]
    mass: 6.940000
    reduced_to: 9
  - symbol: Li # 12
    coordinates: [  0.940914982911634,  0.730295087481227,  0.515726234915274 ]
    mass: 6.940000
    reduced_to: 9
  - symbol: Li # 13
    coordinates: [  0.497912673730835,  0.040311707737839,  0.078526669069857 ]
    mass: 6.940000
    reduced_to: 13
  - symbol: Li # 14
    coordinates: [  0.997912673730835,  0.040311707737839,  0.078526669069857 ]
    mass: 6.940000
    reduced_to: 13
  - symbol: Li # 15
    coordinates: [  0.497912673730835,  0.540311707737839,  0.078526669069857 ]
    mass: 6.940000
    reduced_to: 13
  - symbol: Li # 16
    coordinates: [  0.997912673730835,  0.540311707737839,  0.078526669069857 ]
    mass: 6.940000
    reduced_to: 13
  - symbol: Li # 17
    coordinates: [  0.053274039696274,  0.174109778700870,  0.957614193122490 ]
    mass: 6.940000
    reduced_to: 17
  - symbol: Li # 18
    coordinates: [  0.553274039696274,  0.174109778700870,  0.957614193122490 ]
    mass: 6.940000
    reduced_to: 17
  - symbol: Li # 19
    coordinates: [  0.053274039696274,  0.674109778700870,  0.957614193122490 ]
    mass: 6.940000
    reduced_to: 17
  - symbol: Li # 20
    coordinates: [  0.553274039696274,  0.674109778700870,  0.957614193122490 ]
    mass: 6.940000
    reduced_to: 17
  - symbol: Li # 21
    coordinates: [  0.335250913163938,  0.290524281458520,  0.079573786264319 ]
    mass: 6.940000
    reduced_to: 21
  - symbol: Li # 22
    coordinates: [  0.835250913163938,  0.290524281458520,  0.079573786264319 ]
    mass: 6.940000
    reduced_to: 21
  - symbol: Li # 23
    coordinates: [  0.335250913163938,  0.790524281458520,  0.079573786264319 ]
    mass: 6.940000
    reduced_to: 21
  - symbol: Li # 24
    coordinates: [  0.835250913163938,  0.790524281458520,  0.079573786264319 ]
    mass: 6.940000
    reduced_to: 21
  - symbol: Ga # 25
    coordinates: [  0.331449716186490,  0.368984987376644,  0.407286541725553 ]
    mass: 69.723000
    reduced_to: 25
  - symbol: Ga # 26
    coordinates: [  0.831449716186490,  0.368984987376644,  0.407286541725553 ]
    mass: 69.723000
    reduced_to: 25
  - symbol: Ga # 27
    coordinates: [  0.331449716186490,  0.868984987376644,  0.407286541725553 ]
    mass: 69.723000
    reduced_to: 25
  - symbol: Ga # 28
    coordinates: [  0.831449716186490,  0.868984987376644,  0.407286541725553 ]
    mass: 69.723000
    reduced_to: 25
  - symbol: Ga # 29
    coordinates: [  0.165281675697438,  0.118710820424214,  0.407353788541739 ]
    mass: 69.723000
    reduced_to: 29
  - symbol: Ga # 30
    coordinates: [  0.665281675697438,  0.118710820424214,  0.407353788541739 ]
    mass: 69.723000
    reduced_to: 29
  - symbol: Ga # 31
    coordinates: [  0.165281675697438,  0.618710820424214,  0.407353788541739 ]
    mass: 69.723000
    reduced_to: 29
  - symbol: Ga # 32
    coordinates: [  0.665281675697438,  0.618710820424214,  0.407353788541739 ]
    mass: 69.723000
    reduced_to: 29
  - symbol: Sn # 33
    coordinates: [  0.282876910960397,  0.069950526182378,  0.861032891928360 ]
    mass: 118.710000
    reduced_to: 33
  - symbol: Sn # 34
    coordinates: [  0.782876910960397,  0.069950526182378,  0.861032891928360 ]
    mass: 118.710000
    reduced_to: 33
  - symbol: Sn # 35
    coordinates: [  0.282876910960397,  0.569950526182378,  0.861032891928360 ]
    mass: 118.710000
    reduced_to: 33
  - symbol: Sn # 36
    coordinates: [  0.782876910960397,  0.569950526182378,  0.861032891928360 ]
    mass: 118.710000
    reduced_to: 33
  - symbol: Sn # 37
    coordinates: [  0.217743024551286,  0.337923318515711,  0.616021211857299 ]
    mass: 118.710000
    reduced_to: 37
  - symbol: Sn # 38
    coordinates: [  0.717743024551286,  0.337923318515711,  0.616021211857299 ]
    mass: 118.710000
    reduced_to: 37
  - symbol: Sn # 39
    coordinates: [  0.217743024551286,  0.837923318515711,  0.616021211857299 ]
    mass: 118.710000
    reduced_to: 37
  - symbol: Sn # 40
    coordinates: [  0.717743024551286,  0.837923318515711,  0.616021211857299 ]
    mass: 118.710000
    reduced_to: 37
  - symbol: Sn # 41
    coordinates: [  0.005941475807867,  0.454804828294750,  0.745390865785768 ]
    mass: 118.710000
    reduced_to: 41
  - symbol: Sn # 42
    coordinates: [  0.505941475807867,  0.454804828294750,  0.745390865785768 ]
    mass: 118.710000
    reduced_to: 41
  - symbol: Sn # 43
    coordinates: [  0.005941475807867,  0.954804828294750,  0.745390865785768 ]
    mass: 118.710000
    reduced_to: 41
  - symbol: Sn # 44
    coordinates: [  0.505941475807867,  0.954804828294750,  0.745390865785768 ]
    mass: 118.710000
    reduced_to: 41
  - symbol: Sn # 45
    coordinates: [  0.382997528790733,  0.087973975034369,  0.615672135831625 ]
    mass: 118.710000
    reduced_to: 45
  - symbol: Sn # 46
    coordinates: [  0.882997528790733,  0.087973975034369,  0.615672135831625 ]
    mass: 118.710000
    reduced_to: 45
  - symbol: Sn # 47
    coordinates: [  0.382997528790733,  0.587973975034369,  0.615672135831625 ]
    mass: 118.710000
    reduced_to: 45
  - symbol: Sn # 48
    coordinates: [  0.882997528790733,  0.587973975034369,  0.615672135831625 ]
    mass: 118.710000
    reduced_to: 45
  - symbol: Sn # 49
    coordinates: [  0.397594754428905,  0.007981360399920,  0.286397031637486 ]
    mass: 118.710000
    reduced_to: 49
  - symbol: Sn # 50
    coordinates: [  0.897594754428905,  0.007981360399920,  0.286397031637486 ]
    mass: 118.710000
    reduced_to: 49
  - symbol: Sn # 51
    coordinates: [  0.397594754428905,  0.507981360399920,  0.286397031637486 ]
    mass: 118.710000
    reduced_to: 49
  - symbol: Sn # 52
    coordinates: [  0.897594754428905,  0.507981360399920,  0.286397031637486 ]
    mass: 118.710000
    reduced_to: 49
  - symbol: Sn # 53
    coordinates: [  0.265451588110368,  0.145437439490017,  0.185473870161236 ]
    mass: 118.710000
    reduced_to: 53
  - symbol: Sn # 54
    coordinates: [  0.765451588110368,  0.145437439490017,  0.185473870161236 ]
    mass: 118.710000
    reduced_to: 53
  - symbol: Sn # 55
    coordinates: [  0.265451588110368,  0.645437439490017,  0.185473870161236 ]
    mass: 118.710000
    reduced_to: 53
  - symbol: Sn # 56
    coordinates: [  0.765451588110368,  0.645437439490017,  0.185473870161236 ]
    mass: 118.710000
    reduced_to: 53
  - symbol: Sn # 57
    coordinates: [  0.039273842639085,  0.257987307271291,  0.286876656259798 ]
    mass: 118.710000
    reduced_to: 57
  - symbol: Sn # 58
    coordinates: [  0.539273842639085,  0.257987307271291,  0.286876656259798 ]
    mass: 118.710000
    reduced_to: 57
  - symbol: Sn # 59
    coordinates: [  0.039273842639085,  0.757987307271291,  0.286876656259798 ]
    mass: 118.710000
    reduced_to: 57
  - symbol: Sn # 60
    coordinates: [  0.539273842639085,  0.757987307271291,  0.286876656259798 ]
    mass: 118.710000
    reduced_to: 57
  - symbol: Sn # 61
    coordinates: [  0.160028182032849,  0.205325879662547,  0.745884176186122 ]
    mass: 118.710000
    reduced_to: 61
  - symbol: Sn # 62
    coordinates: [  0.660028182032849,  0.205325879662547,  0.745884176186122 ]
    mass: 118.710000
    reduced_to: 61
  - symbol: Sn # 63
    coordinates: [  0.160028182032849,  0.705325879662547,  0.745884176186122 ]
    mass: 118.710000
    reduced_to: 61
  - symbol: Sn # 64
    coordinates: [  0.660028182032849,  0.705325879662547,  0.745884176186122 ]
    mass: 118.710000
    reduced_to: 61
  - symbol: Sn # 65
    coordinates: [  0.440925573219687,  0.320020328596442,  0.861047621492676 ]
    mass: 118.710000
    reduced_to: 65
  - symbol: Sn # 66
    coordinates: [  0.940925573219688,  0.320020328596442,  0.861047621492676 ]
    mass: 118.710000
    reduced_to: 65
  - symbol: Sn # 67
    coordinates: [  0.440925573219687,  0.820020328596442,  0.861047621492676 ]
    mass: 118.710000
    reduced_to: 65
  - symbol: Sn # 68
    coordinates: [  0.940925573219688,  0.820020328596442,  0.861047621492676 ]
    mass: 118.710000
    reduced_to: 65
  - symbol: Sn # 69
    coordinates: [  0.120636867863184,  0.395798972428790,  0.185830257832944 ]
    mass: 118.710000
    reduced_to: 69
  - symbol: Sn # 70
    coordinates: [  0.620636867863184,  0.395798972428790,  0.185830257832944 ]
    mass: 118.710000
    reduced_to: 69
  - symbol: Sn # 71
    coordinates: [  0.120636867863184,  0.895798972428790,  0.185830257832944 ]
    mass: 118.710000
    reduced_to: 69
  - symbol: Sn # 72
    coordinates: [  0.620636867863184,  0.895798972428790,  0.185830257832944 ]
    mass: 118.710000
    reduced_to: 69

displacements:
- atom:    1
  displacement:
    [   0.0100000000000000,  0.0000000000000000,  0.0000000000000000 ]
  forces:
  - [  -0.0965268611907959,  0.0060596619732678, -0.0337149873375893 ]
  - [  -0.0846783593297005,  0.0054633510299027, -0.0338559970259666 ]
  - [  -0.0851444900035858,  0.0054639410227537, -0.0337997227907181 ]
  - [  -0.0851301550865173,  0.0054734922014177, -0.0337956063449383 ]
  - [  -0.0267966985702515, -0.0165123697370291,  0.0465043932199478 ]
  - [  -0.0265025384724140, -0.0163390357047319,  0.0463244542479515 ]
  - [  -0.0264912471175194, -0.0164655521512032,  0.0464103259146214 ]
  - [  -0.0265444628894329, -0.0164133124053478,  0.0464405044913292 ]
  - [   0.0898015126585960,  0.0139015782624483, -0.0257267225533724 ]
  - [   0.0895776450634003,  0.0138060171157122, -0.0257422029972076 ]
  - [   0.0898092389106750,  0.0139381382614374, -0.0257968679070473 ]
  - [   0.0895880609750748,  0.0136478291824460, -0.0257369708269835 ]
  - [   0.0049749184399843,  0.0197785943746567, -0.0564431995153427 ]
  - [   0.0050005065277219,  0.0197578631341457, -0.0564689710736275 ]
  - [   0.0049870898947120,  0.0198590271174908, -0.0565625391900539 ]
  - [   0.0046947421506047,  0.0196487512439489, -0.0562958680093288 ]
  - [   0.0189887918531895, -0.0126702031120658,  0.0557075515389442 ]
  - [   0.0190186575055122, -0.0126565825194120,  0.0556723996996880 ]
  - [   0.0190184358507395, -0.0126173542812467,  0.0553565397858620 ]
  - [   0.0189825259149075, -0.0127321565523744,  0.0557068027555943 ]
  - [  -0.0059998333454132,  0.0193414129316807, -0.0641565695405006 ]
  - [  -0.0059582442045212,  0.0192829500883818, -0.0640878826379776 ]
  - [  -0.0060332864522934,  0.0193558353930712, -0.0642714649438858 ]
  - [  -0.0060215694829822,  0.0192910358309746, -0.0642385259270668 ]
  - [   0.0359961725771427, -0.0338508263230324,  0.0124550871551037 ]
  - [   0.0361255779862404, -0.0331061705946922,  0.0129847042262554 ]
  - [   0.0347444973886013, -0.0334761515259743,  0.0126999206840992 ]
  - [   0.0347197651863098, -0.0335385315120220,  0.0126791000366211 ]
  - [  -0.0337004959583282, -0.0242193825542927,  0.0102323116734624 ]
  - [  -0.0336186364293098, -0.0242848619818687,  0.0102558489888906 ]
  - [  -0.0332222767174244, -0.0236002895981073,  0.0099464626982808 ]
  - [  -0.0338318794965744, -0.0242098532617092,  0.0101801194250584 ]
  - [  -0.0065100574865937, -0.0105220414698124, -0.0316958315670490 ]
  - [  -0.0065269866026938, -0.0105312513187528, -0.0316094905138016 ]
  - [  -0.0061124060302973, -0.0106745632365346, -0.0309763662517071 ]
  - [  -0.0069442335516214, -0.0106464177370071, -0.0315034613013268 ]
  - [   0.0024926494807005,  0.0256332755088806,  0.0060178935527802 ]
  - [   0.0015027560293674,  0.0262907911092043,  0.0060974285006523 ]
  - [   0.0018483959138393,  0.0262092556804419,  0.0057516172528267 ]
  - [   0.0019144564867020,  0.0264632347971201,  0.0057891532778740 ]
  - [  -0.0379860736429691,  0.0145118255168200, -0.0386364534497261 ]
  - [  -0.0392587967216969,  0.0136484447866678, -0.0376480855047703 ]
  - [  -0.0391864813864231,  0.0135219991207123, -0.0373796597123146 ]
  - [  -0.0391392409801483,  0.0135848969221115, -0.0373554751276970 ]
  - [  -0.0007895417511463,  0.0203554388135672,  0.0159804522991180 ]
  - [  -0.0007961820811033,  0.0203726273030043,  0.0159702785313129 ]
  - [   0.0023162420839071,  0.0210382938385010,  0.0162069946527481 ]
  - [   0.0026542656123638,  0.0191027931869030,  0.0150104686617851 ]
  - [  -0.0626593530178070, -0.0306543000042439,  0.0676966607570648 ]
  - [  -0.0626878887414932, -0.0305576175451279,  0.0676708668470383 ]
  - [  -0.0627026259899139, -0.0308575741946697,  0.0679675936698914 ]
  - [  -0.0616905167698860, -0.0313450470566750,  0.0693344473838806 ]
  - [  -0.0215461533516645,  0.0340450555086136,  0.0263059269636869 ]
  - [  -0.0213961452245712,  0.0333772636950016,  0.0258985813707113 ]
  - [  -0.0214723609387875,  0.0333472639322281,  0.0261234063655138 ]
  - [  -0.0213897749781609,  0.0336426272988319,  0.0258968807756901 ]
  - [   0.0641008019447327, -0.0253979675471783,  0.0600219629704952 ]
  - [   0.0638238042593002, -0.0251092687249184,  0.0600891858339310 ]
  - [   0.0639649480581284, -0.0252288132905960,  0.0599944964051247 ]
  - [   0.0640429407358170, -0.0252321995794773,  0.0600251331925392 ]
  - [   0.0367140807211399,  0.0011927573941648, -0.0413158610463142 ]
  - [   0.0368249379098415,  0.0013066455721855, -0.0413647852838039 ]
  - [   0.0367903970181942,  0.0013517392799258, -0.0413061305880547 ]
  - [   0.0370444059371948,  0.0015429386403412, -0.0411641746759415 ]
  - [   0.0117361107841134, -0.0167174227535725, -0.0275023449212313 ]
  - [   0.0116034718230367, -0.0167876221239567, -0.0273529142141342 ]
  - [   0.0114700887352228, -0.0170386396348476, -0.0274280868470669 ]
  - [   0.0115904454141855, -0.0166748575866222, -0.0272148586809635 ]
  - [   0.0197929739952087,  0.0166431181132793,  0.0165292918682098 ]
  - [   0.0186963789165020,  0.0166263021528721,  0.0173452217131853 ]
  - [   0.0190139617770910,  0.0163962468504906,  0.0174077060073614 ]
  - [   0.0190293174237013,  0.0163938812911510,  0.0174598731100559 ]
- atom:    1
  displacement:
    [  -0.0100000000000000,  0.0000000000000000,  0.0000000000000000 ]
  forces:
  - [  -0.0737365111708641,  0.0048305494710803, -0.0339378640055656 ]
  - [  -0.0855894386768341,  0.0054875365458429, -0.0337335392832756 ]
  - [  -0.0851228162646294,  0.0054828319698572, -0.0337923690676689 ]
  - [  -0.0851377099752426,  0.0054722623899579, -0.0337978750467300 ]
  - [  -0.0262924507260323, -0.0163245946168900,  0.0463670082390308 ]
  - [  -0.0265856273472309, -0.0164968520402908,  0.0465513356029987 ]
  - [  -0.0265959370881319, -0.0163682568818331,  0.0464649498462677 ]
  - [  -0.0265421867370605, -0.0164208095520735,  0.0464338287711143 ]
  - [   0.0897198021411896,  0.0138828251510859, -0.0257781147956848 ]
  - [   0.0899409949779510,  0.0139673631638288, -0.0257625579833984 ]
  - [   0.0897082760930061,  0.0138398017734289, -0.0257058236747980 ]
  - [   0.0899291336536407,  0.0141509948298335, -0.0257661212235689 ]
  - [   0.0049586053937674,  0.0197206772863865, -0.0564884170889854 ]
  - [   0.0049309367313981,  0.0197396054863930, -0.0564650073647499 ]
  - [   0.0049446672201157,  0.0196436494588852, -0.0563658438622952 ]
  - [   0.0052354242652655,  0.0198509395122528, -0.0566346310079098 ]
  - [   0.0190342999994755, -0.0125948004424572,  0.0556409172713757 ]
  - [   0.0190027430653572, -0.0126092415302992,  0.0556775555014610 ]
  - [   0.0190022438764572, -0.0126476716250181,  0.0559971183538437 ]
  - [   0.0190354231745005, -0.0125329336151481,  0.0556397661566734 ]
  - [  -0.0060545857995749,  0.0192476101219654, -0.0643243566155434 ]
  - [  -0.0060970354825258,  0.0193064101040363, -0.0643922463059425 ]
  - [  -0.0060199778527021,  0.0192338954657316, -0.0642080977559090 ]
  - [  -0.0060310810804367,  0.0192980226129293, -0.0642414093017578 ]
  - [   0.0335415899753571, -0.0332183465361595,  0.0128733739256859 ]
  - [   0.0333117246627808, -0.0339624397456646,  0.0123484414070845 ]
  - [   0.0347283259034157, -0.0335640758275986,  0.0126575455069542 ]
  - [   0.0347532331943512, -0.0335031189024448,  0.0126778483390808 ]
  - [  -0.0336240157485008, -0.0243004932999611,  0.0102796014398336 ]
  - [  -0.0337075144052505, -0.0242362916469574,  0.0102549670264125 ]
  - [  -0.0341031365096569, -0.0249190591275692,  0.0105603039264679 ]
  - [  -0.0334874168038368, -0.0243153385818005,  0.0103292800486088 ]
  - [  -0.0065430542454123, -0.0105179455131292, -0.0316093116998672 ]
  - [  -0.0065229553729296, -0.0105100041255355, -0.0316932238638401 ]
  - [  -0.0069441180676222, -0.0103641552850604, -0.0323199853301048 ]
  - [  -0.0061019659042358, -0.0103959841653705, -0.0318034254014492 ]
  - [   0.0012203976511955,  0.0272923801094294,  0.0056010261178017 ]
  - [   0.0022216122597456,  0.0266374740749598,  0.0055221393704414 ]
  - [   0.0018721111118793,  0.0267160814255476,  0.0058677420020103 ]
  - [   0.0018098130822182,  0.0264686606824398,  0.0058270841836929 ]
  - [  -0.0403525233268738,  0.0125909773632884, -0.0360715128481388 ]
  - [  -0.0390666611492634,  0.0134758967906237, -0.0370929762721062 ]
  - [  -0.0391438640654087,  0.0136042069643736, -0.0373688489198685 ]
  - [  -0.0391899421811104,  0.0135397771373391, -0.0373933538794518 ]
  - [  -0.0007856134325266,  0.0203622262924910,  0.0160049274563789 ]
  - [  -0.0007758364081383,  0.0203457102179527,  0.0160153955221176 ]
  - [  -0.0037665311247110,  0.0197414606809616,  0.0158096030354500 ]
  - [  -0.0043195635080338,  0.0216701719909906,  0.0170141123235226 ]
  - [  -0.0627048760652542, -0.0305545423179865,  0.0676500946283340 ]
  - [  -0.0626754462718964, -0.0306514240801334,  0.0676744133234024 ]
  - [  -0.0626976490020752, -0.0303624942898750,  0.0674026459455490 ]
  - [  -0.0636750906705856, -0.0298360772430897,  0.0659684687852859 ]
  - [  -0.0211678519845009,  0.0332179777324200,  0.0257821492850780 ]
  - [  -0.0213100221008062,  0.0338861048221588,  0.0261909104883671 ]
  - [  -0.0212344564497471,  0.0339171513915062,  0.0259621515870094 ]
  - [  -0.0213192347437143,  0.0336170010268688,  0.0261915866285563 ]
  - [   0.0639680251479149, -0.0251112096011639,  0.0600322037935257 ]
  - [   0.0642227679491043, -0.0254045818001032,  0.0599569827318192 ]
  - [   0.0641031786799431, -0.0252870805561543,  0.0600508302450180 ]
  - [   0.0640241429209709, -0.0252849869430065,  0.0600221753120422 ]
  - [   0.0368924438953400,  0.0014173507224768, -0.0414491519331932 ]
  - [   0.0367806442081928,  0.0013090933207422, -0.0414003841578960 ]
  - [   0.0368239581584930,  0.0012621073983610, -0.0414591468870640 ]
  - [   0.0365766063332558,  0.0010802131146193, -0.0415867380797863 ]
  - [   0.0116401929408312, -0.0171063020825386, -0.0272562317550182 ]
  - [   0.0117682283744216, -0.0170337744057178, -0.0274067278951406 ]
  - [   0.0118955941870809, -0.0167839601635933, -0.0273277349770069 ]
  - [   0.0117910634726286, -0.0171487405896187, -0.0275449752807617 ]
  - [   0.0182459279894829,  0.0161374490708113,  0.0183696281164885 ]
  - [   0.0193495079874992,  0.0161539018154144,  0.0175606496632099 ]
  - [   0.0190273933112621,  0.0163828954100609,  0.0175020545721054 ]
  - [   0.0190137401223183,  0.0163863729685545,  0.0174451414495707 ]
- atom:    1
  displacement:
    [  -0.0000051945706066,  0.0099999986508217,  0.0000000000000000 ]
  forces:
  - [  -0.0845049843192101, -0.0037482695188373, -0.0332138463854790 ]
  - [  -0.0851462483406067,  0.0053672506473958, -0.0339304134249687 ]
  - [  -0.0851426124572754,  0.0055608870461583, -0.0337886512279510 ]
  - [  -0.0851334035396576,  0.0054580653086305, -0.0338017866015434 ]
  - [  -0.0265503805130720, -0.0163565054535866,  0.0461046360433102 ]
  - [  -0.0265075340867043, -0.0164786949753761,  0.0466084443032742 ]
  - [  -0.0265057776123285, -0.0167343355715275,  0.0461549982428551 ]
  - [  -0.0265173707157373, -0.0163563527166843,  0.0464717559516430 ]
  - [   0.0896882861852646,  0.0139194857329130, -0.0257608518004417 ]
  - [   0.0899557992815971,  0.0136649189516902, -0.0256764907389879 ]
  - [   0.0897418782114983,  0.0139135625213385, -0.0257870592176914 ]
  - [   0.0897889137268066,  0.0138211278244853, -0.0257272571325302 ]
  - [   0.0049896556884050,  0.0198041778057814, -0.0564097613096237 ]
  - [   0.0049173571169376,  0.0193725023418665, -0.0567559413611889 ]
  - [   0.0050755254924297,  0.0196986719965935, -0.0563935860991478 ]
  - [   0.0049434294924140,  0.0199338234961033, -0.0567182488739491 ]
  - [   0.0189597047865391, -0.0126134958118200,  0.0555901899933815 ]
  - [   0.0190066881477833, -0.0126167284324765,  0.0556900277733803 ]
  - [   0.0190060734748840, -0.0125822797417641,  0.0557777509093285 ]
  - [   0.0189145244657993, -0.0126777123659849,  0.0556296706199646 ]
  - [  -0.0059193549677730,  0.0192861426621675, -0.0643218383193016 ]
  - [  -0.0059414925053716,  0.0193243976682425, -0.0640918388962746 ]
  - [  -0.0059701129794121,  0.0192152131348848, -0.0643015280365944 ]
  - [  -0.0060237664729357,  0.0192970447242260, -0.0642347857356071 ]
  - [   0.0342586115002632, -0.0333141982555389,  0.0127476025372744 ]
  - [   0.0350599214434624, -0.0331581681966782,  0.0128396302461624 ]
  - [   0.0347533822059631, -0.0334712602198124,  0.0126948487013578 ]
  - [   0.0346767827868462, -0.0334576442837715,  0.0126761328428984 ]
  - [  -0.0336976274847984, -0.0244552828371525,  0.0100694485008717 ]
  - [  -0.0336577855050564, -0.0242136195302010,  0.0102347461506724 ]
  - [  -0.0325267128646374, -0.0220190286636353,  0.0095138661563396 ]
  - [  -0.0336960069835186, -0.0243375655263662,  0.0103194983676076 ]
  - [  -0.0065601579844952, -0.0104405097663403, -0.0317536965012550 ]
  - [  -0.0065102134831250, -0.0105477143079042, -0.0316510759294033 ]
  - [  -0.0066579803824425, -0.0109417093917727, -0.0319169238209724 ]
  - [  -0.0064872726798058, -0.0105466237291694, -0.0316362902522087 ]
  - [  -0.0002767350524664,  0.0299159120768309,  0.0045630484819412 ]
  - [   0.0017978381365538,  0.0263390652835369,  0.0058413743972778 ]
  - [   0.0019625071436167,  0.0260606985539198,  0.0055227950215340 ]
  - [   0.0018527843058109,  0.0264791026711464,  0.0057929679751396 ]
  - [  -0.0381902009248734,  0.0144677497446537, -0.0383834242820740 ]
  - [  -0.0390403605997562,  0.0137732699513435, -0.0371685884892941 ]
  - [  -0.0391794852912426,  0.0135522587224841, -0.0373369678854942 ]
  - [  -0.0391678735613823,  0.0135320797562599, -0.0373662263154984 ]
  - [  -0.0008009467273951,  0.0204097647219896,  0.0160106979310513 ]