phonopy:
  version: "2.37.1"
  frequency_unit_conversion_factor: 15.633302
  symmetry_tolerance: 1.00000e-05

space_group:
  type: "P1"
  number: 1
  Hall_symbol: "P 1"

primitive_matrix:
- [ -1.000000000000000,  0.000000000000000, -0.000000000000000 ]
- [  0.000000000000000, -1.000000000000000,  0.000000000000000 ]
- [  0.000000000000000,  0.000000000000000,  1.000000000000000 ]

supercell_matrix:
- [   4,   0,   0 ]
- [   0,   4,   0 ]
- [   0,   0,   1 ]

primitive_cell:
  lattice:
  - [    -3.215496871725422,     0.000000000000000,     0.000000000000000 ] # a
  - [    -0.000242092704611,    -3.267658384468076,     0.000000000000000 ] # b
  - [    -0.000835503074743,    -1.526973708394927,    10.711663217005594 ] # c
  points:
  - symbol: Li # 1
    coordinates: [  0.837407006369110,  0.255769656912314,  0.852456389499169 ]
    mass: 6.940000
  - symbol: Li # 2
    coordinates: [  0.837427773640947,  0.081767676632114,  0.218246585938769 ]
    mass: 6.940000
  - symbol: Sn # 3
    coordinates: [  0.337608890783152,  0.847606868541672,  0.662195571243420 ]
    mass: 118.710000
  - symbol: Sn # 4
    coordinates: [  0.337386682043230,  0.668916851587679,  0.035399479121820 ]
    mass: 118.710000
  - symbol: Sn # 5
    coordinates: [  0.336772597160867,  0.490465475674388,  0.408193067150496 ]
    mass: 118.710000
  reciprocal_lattice: # without 2pi
  - [    -0.310993927188430,     0.000023040768677,    -0.000020972815318 ] # a*
  - [    -0.000000000000000,    -0.306029542363800,    -0.043625257414720 ] # b*
  - [    -0.000000000000000,    -0.000000000000000,     0.093356183791554 ] # c*

unit_cell:
  lattice:
  - [     3.215496871725422,     0.000000000000000,     0.000000000000000 ] # a
  - [     0.000242092704611,     3.267658384468076,     0.000000000000000 ] # b
  - [    -0.000835503074742,    -1.526973708394926,    10.711663217005592 ] # c
  points:
  - symbol: Li # 1
    coordinates: [  0.162592993630890,  0.744230343087686,  0.852456389499169 ]
    mass: 6.940000
    reduced_to: 1
  - symbol: Li # 2
    coordinates: [  0.162572226359053,  0.918232323367886,  0.218246585938769 ]
    mass: 6.940000
    reduced_to: 2
  - symbol: Sn # 3
    coordinates: [  0.662391109216848,  0.152393131458328,  0.662195571243420 ]
    mass: 118.710000
    reduced_to: 3
  - symbol: Sn # 4
    coordinates: [  0.662613317956770,  0.331083148412321,  0.035399479121820 ]
    mass: 118.710000
    reduced_to: 4
  - symbol: Sn # 5
    coordinates: [  0.663227402839133,  0.509534524325612,  0.408193067150496 ]
    mass: 118.710000
    reduced_to: 5

supercell:
  lattice:
  - [    12.861987486901686,     0.000000000000000,     0.000000000000000 ] # a
  - [     0.000968370818443,    13.070633537872304,     0.000000000000000 ] # b
  - [    -0.000835503074742,    -1.526973708394926,    10.711663217005592 ] # c
  points:
  - symbol: Li # 1
    coordinates: [  0.040648248407722,  0.186057585771922,  0.852456389499169 ]
    mass: 6.940000
    reduced_to: 1
  - symbol: Li # 2
    coordinates: [  0.290648248407722,  0.186057585771922,  0.852456389499169 ]
    mass: 6.940000
    reduced_to: 1
  - symbol: Li # 3
    coordinates: [  0.540648248407722,  0.186057585771922,  0.852456389499169 ]
    mass: 6.940000
    reduced_to: 1
  - symbol: Li # 4
    coordinates: [  0.790648248407722,  0.186057585771922,  0.852456389499169 ]
    mass: 6.940000
    reduced_to: 1
  - symbol: Li # 5
    coordinates: [  0.040648248407722,  0.436057585771922,  0.852456389499169 ]
    mass: 6.940000
    reduced_to: 1
  - symbol: Li # 6
    coordinates: [  0.290648248407722,  0.436057585771922,  0.852456389499169 ]
    mass: 6.940000
    reduced_to: 1
  - symbol: Li # 7
    coordinates: [  0.540648248407722,  0.436057585771922,  0.852456389499169 ]
    mass: 6.940000
    reduced_to: 1
  - symbol: Li # 8
    coordinates: [  0.790648248407722,  0.436057585771922,  0.852456389499169 ]
    mass: 6.940000
    reduced_to: 1
  - symbol: Li # 9
    coordinates: [  0.040648248407722,  0.686057585771922,  0.852456389499169 ]
    mass: 6.940000
    reduced_to: 1
  - symbol: Li # 10
    coordinates: [  0.290648248407722,  0.686057585771922,  0.852456389499169 ]
    mass: 6.940000
    reduced_to: 1
  - symbol: Li # 11
    coordinates: [  0.540648248407722,  0.686057585771922,  0.852456389499169 ]
    mass: 6.940000
    reduced_to: 1
  - symbol: Li # 12
    coordinates: [  0.790648248407722,  0.686057585771922,  0.852456389499169 ]
    mass: 6.940000
    reduced_to: 1
  - symbol: Li # 13
    coordinates: [  0.040648248407722,  0.936057585771922,  0.852456389499169 ]
    mass: 6.940000
    reduced_to: 1
  - symbol: Li # 14
    coordinates: [  0.290648248407722,  0.936057585771922,  0.852456389499169 ]
    mass: 6.940000
    reduced_to: 1
  - symbol: Li # 15
    coordinates: [  0.540648248407722,  0.936057585771922,  0.852456389499169 ]
    mass: 6.940000
    reduced_to: 1
  - symbol: Li # 16
    coordinates: [  0.790648248407722,  0.936057585771922,  0.852456389499169 ]
    mass: 6.940000
    reduced_to: 1
  - symbol: Li # 17
    coordinates: [  0.040643056589763,  0.229558080841971,  0.218246585938769 ]
    mass: 6.940000
    reduced_to: 17
  - symbol: Li # 18
    coordinates: [  0.290643056589763,  0.229558080841971,  0.218246585938769 ]
    mass: 6.940000
    reduced_to: 17
  - symbol: Li # 19
    coordinates: [  0.540643056589763,  0.229558080841971,  0.218246585938769 ]
    mass: 6.940000
    reduced_to: 17
  - symbol: Li # 20
    coordinates: [  0.790643056589763,  0.229558080841971,  0.218246585938769 ]
    mass: 6.940000
    reduced_to: 17
  - symbol: Li # 21
    coordinates: [  0.040643056589763,  0.479558080841971,  0.218246585938769 ]
    mass: 6.940000
    reduced_to: 17
  - symbol: Li # 22
    coordinates: [  0.290643056589763,  0.479558080841971,  0.218246585938769 ]
    mass: 6.940000
    reduced_to: 17
  - symbol: Li # 23
    coordinates: [  0.540643056589763,  0.479558080841971,  0.218246585938769 ]
    mass: 6.940000
    reduced_to: 17
  - symbol: Li # 24
    coordinates: [  0.790643056589763,  0.479558080841971,  0.218246585938769 ]
    mass: 6.940000
    reduced_to: 17
  - symbol: Li # 25
    coordinates: [  0.040643056589763,  0.729558080841971,  0.218246585938769 ]
    mass: 6.940000
    reduced_to: 17
  - symbol: Li # 26
    coordinates: [  0.290643056589763,  0.729558080841971,  0.218246585938769 ]
    mass: 6.940000
    reduced_to: 17
  - symbol: Li # 27
    coordinates: [  0.540643056589763,  0.729558080841971,  0.218246585938769 ]
    mass: 6.940000
    reduced_to: 17
  - symbol: Li # 28
    coordinates: [  0.790643056589763,  0.729558080841971,  0.218246585938769 ]
    mass: 6.940000
    reduced_to: 17
  - symbol: Li # 29
    coordinates: [  0.040643056589763,  0.979558080841971,  0.218246585938769 ]
    mass: 6.940000
    reduced_to: 17
  - symbol: Li # 30
    coordinates: [  0.290643056589763,  0.979558080841971,  0.218246585938769 ]
    mass: 6.940000
    reduced_to: 17
  - symbol: Li # 31
    coordinates: [  0.540643056589763,  0.979558080841971,  0.218246585938769 ]
    mass: 6.940000
    reduced_to: 17
  - symbol: Li # 32
    coordinates: [  0.790643056589763,  0.979558080841971,  0.218246585938769 ]
    mass: 6.940000
    reduced_to: 17
  - symbol: Sn # 33
    coordinates: [  0.165597777304212,  0.038098282864582,  0.662195571243420 ]
    mass: 118.710000
    reduced_to: 33
  - symbol: Sn # 34
    coordinates: [  0.415597777304212,  0.038098282864582,  0.662195571243420 ]
    mass: 118.710000
    reduced_to: 33
  - symbol: Sn # 35
    coordinates: [  0.665597777304212,  0.038098282864582,  0.662195571243420 ]
    mass: 118.710000
    reduced_to: 33
  - symbol: Sn # 36
    coordinates: [  0.915597777304212,  0.038098282864582,  0.662195571243420 ]
    mass: 118.710000
    reduced_to: 33
  - symbol: Sn # 37
    coordinates: [  0.165597777304212,  0.288098282864582,  0.662195571243420 ]
    mass: 118.710000
    reduced_to: 33
  - symbol: Sn # 38
    coordinates: [  0.415597777304212,  0.288098282864582,  0.662195571243420 ]
    mass: 118.710000
    reduced_to: 33
  - symbol: Sn # 39
    coordinates: [  0.665597777304212,  0.288098282864582,  0.662195571243420 ]
    mass: 118.710000
    reduced_to: 33
  - symbol: Sn # 40
    coordinates: [  0.915597777304212,  0.288098282864582,  0.662195571243420 ]
    mass: 118.710000
    reduced_to: 33
  - symbol: Sn # 41
    coordinates: [  0.165597777304212,  0.538098282864582,  0.662195571243420 ]
    mass: 118.710000
    reduced_to: 33
  - symbol: Sn # 42
    coordinates: [  0.415597777304212,  0.538098282864582,  0.662195571243420 ]
    mass: 118.710000
    reduced_to: 33
  - symbol: Sn # 43
    coordinates: [  0.665597777304212,  0.538098282864582,  0.662195571243420 ]
    mass: 118.710000
    reduced_to: 33
  - symbol: Sn # 44
    coordinates: [  0.915597777304212,  0.538098282864582,  0.662195571243420 ]
    mass: 118.710000
    reduced_to: 33
  - symbol: Sn # 45
    coordinates: [  0.165597777304212,  0.788098282864582,  0.662195571243420 ]
    mass: 118.710000
    reduced_to: 33
  - symbol: Sn # 46
    coordinates: [  0.415597777304212,  0.788098282864582,  0.662195571243420 ]
    mass: 118.710000
    reduced_to: 33
  - symbol: Sn # 47
    coordinates: [  0.665597777304212,  0.788098282864582,  0.662195571243420 ]
    mass: 118.710000
    reduced_to: 33
  - symbol: Sn # 48
    coordinates: [  0.915597777304212,  0.788098282864582,  0.662195571243420 ]
    mass: 118.710000
    reduced_to: 33
  - symbol: Sn # 49
    coordinates: [  0.165653329489192,  0.082770787103080,  0.035399479121820 ]
    mass: 118.710000
    reduced_to: 49
  - symbol: Sn # 50
    coordinates: [  0.415653329489192,  0.082770787103080,  0.035399479121820 ]
    mass: 118.710000
    reduced_to: 49
  - symbol: Sn # 51
    coordinates: [  0.665653329489192,  0.082770787103080,  0.035399479121820 ]
    mass: 118.710000
    reduced_to: 49
  - symbol: Sn # 52
    coordinates: [  0.915653329489192,  0.082770787103080,  0.035399479121820 ]
    mass: 118.710000
    reduced_to: 49
  - symbol: Sn # 53
    coordinates: [  0.165653329489192,  0.332770787103080,  0.035399479121820 ]
    mass: 118.710000
    reduced_to: 49
  - symbol: Sn # 54
    coordinates: [  0.415653329489192,  0.332770787103080,  0.035399479121820 ]
    mass: 118.710000
    reduced_to: 49
  - symbol: Sn # 55
    coordinates: [  0.665653329489192,  0.332770787103080,  0.035399479121820 ]
    mass: 118.710000
    reduced_to: 49
  - symbol: Sn # 56
    coordinates: [  0.915653329489192,  0.332770787103080,  0.035399479121820 ]
    mass: 118.710000
    reduced_to: 49
  - symbol: Sn # 57
    coordinates: [  0.165653329489192,  0.582770787103080,  0.035399479121820 ]
    mass: 118.710000
    reduced_to: 49
  - symbol: Sn # 58
    coordinates: [  0.415653329489192,  0.582770787103080,  0.035399479121820 ]
    mass: 118.710000
    reduced_to: 49
  - symbol: Sn # 59
    coordinates: [  0.665653329489192,  0.582770787103080,  0.035399479121820 ]
    mass: 118.710000
    reduced_to: 49
  - symbol: Sn # 60
    coordinates: [  0.915653329489192,  0.582770787103080,  0.035399479121820 ]
    mass: 118.710000
    reduced_to: 49
  - symbol: Sn # 61
    coordinates: [  0.165653329489192,  0.832770787103080,  0.035399479121820 ]
    mass: 118.710000
    reduced_to: 49
  - symbol: Sn # 62
    coordinates: [  0.415653329489192,  0.832770787103080,  0.035399479121820 ]
    mass: 118.710000
    reduced_to: 49
  - symbol: Sn # 63
    coordinates: [  0.665653329489192,  0.832770787103080,  0.035399479121820 ]
    mass: 118.710000
    reduced_to: 49
  - symbol: Sn # 64
    coordinates: [  0.915653329489192,  0.832770787103080,  0.035399479121820 ]
    mass: 118.710000
    reduced_to: 49
  - symbol: Sn # 65
    coordinates: [  0.165806850709783,  0.127383631081403,  0.408193067150496 ]
    mass: 118.710000
    reduced_to: 65
  - symbol: Sn # 66
    coordinates: [  0.415806850709783,  0.127383631081403,  0.408193067150496 ]
    mass: 118.710000
    reduced_to: 65
  - symbol: Sn # 67
    coordinates: [  0.665806850709783,  0.127383631081403,  0.408193067150496 ]
    mass: 118.710000
    reduced_to: 65
  - symbol: Sn # 68
    coordinates: [  0.915806850709783,  0.127383631081403,  0.408193067150496 ]
    mass: 118.710000
    reduced_to: 65
  - symbol: Sn # 69
    coordinates: [  0.165806850709783,  0.377383631081403,  0.408193067150496 ]
    mass: 118.710000
    reduced_to: 65
  - symbol: Sn # 70
    coordinates: [  0.415806850709783,  0.377383631081403,  0.408193067150496 ]
    mass: 118.710000
    reduced_to: 65
  - symbol: Sn # 71
    coordinates: [  0.665806850709783,  0.377383631081403,  0.408193067150496 ]
    mass: 118.710000
    reduced_to: 65
  - symbol: Sn # 72
    coordinates: [  0.915806850709783,  0.377383631081403,  0.408193067150496 ]
    mass: 118.710000
    reduced_to: 65
  - symbol: Sn # 73
    coordinates: [  0.165806850709783,  0.627383631081403,  0.408193067150496 ]
    mass: 118.710000
    reduced_to: 65
  - symbol: Sn # 74
    coordinates: [  0.415806850709783,  0.627383631081403,  0.408193067150496 ]
    mass: 118.710000
    reduced_to: 65
  - symbol: Sn # 75
    coordinates: [  0.665806850709783,  0.627383631081403,  0.408193067150496 ]
    mass: 118.710000
    reduced_to: 65
  - symbol: Sn # 76
    coordinates: [  0.915806850709783,  0.627383631081403,  0.408193067150496 ]
    mass: 118.710000
    reduced_to: 65
  - symbol: Sn # 77
    coordinates: [  0.165806850709783,  0.877383631081403,  0.408193067150496 ]
    mass: 118.710000
    reduced_to: 65
  - symbol: Sn # 78
    coordinates: [  0.415806850709783,  0.877383631081403,  0.408193067150496 ]
    mass: 118.710000
    reduced_to: 65
  - symbol: Sn # 79
    coordinates: [  0.665806850709783,  0.877383631081403,  0.408193067150496 ]
    mass: 118.710000
    reduced_to: 65
  - symbol: Sn # 80
    coordinates: [  0.915806850709783,  0.877383631081403,  0.408193067150496 ]
    mass: 118.710000
    reduced_to: 65

displacements:
- atom:    1
  displacement:
    [   0.0100000000000000,  0.0000000000000000,  0.0000000000000000 ]
  forces:
  - [  -0.0165229644626379,  0.0005613714456558, -0.0235939696431160 ]
  - [   0.0016059093177319,  0.0005672277184203, -0.0234875753521919 ]
  - [  -0.0011312310816720,  0.0005542169092223, -0.0235801227390766 ]
  - [   0.0015517179854214,  0.0005402825772762, -0.0236735809594393 ]
  - [  -0.0007468261756003,  0.0005508502945304, -0.0235829018056393 ]
  - [  -0.0002068402245641,  0.0006509954109788, -0.0237370021641254 ]
  - [  -0.0003578918986022,  0.0005523953586817, -0.0235783886164427 ]
  - [  -0.0002131662331522,  0.0004587918519974, -0.0234238170087337 ]
  - [  -0.0004390737740323,  0.0005537997931242, -0.0235801730304956 ]
  - [  -0.0003380216658115,  0.0005550049245358, -0.0235771797597408 ]
  - [  -0.0003739397798199,  0.0005549276247621, -0.0235807020217180 ]
  - [  -0.0003379671834409,  0.0005526575259864, -0.0235825665295124 ]
  - [  -0.0007457507308573,  0.0005524905864149, -0.0235826317220926 ]
  - [  -0.0002068653702736,  0.0004544109106064, -0.0237282682210207 ]
  - [  -0.0003573113062885,  0.0005522751016542, -0.0235777124762535 ]
  - [  -0.0002145199105144,  0.0006476789712906, -0.0234306901693344 ]
  - [   0.0014177963603288, -0.0022370396181941,  0.0213669016957283 ]
  - [   0.0014657266438007, -0.0022548530250788,  0.0213911682367325 ]
  - [   0.0014240792952478, -0.0022346461191773,  0.0213643983006477 ]
  - [   0.0014625354669988, -0.0022200886160135,  0.0213454179465771 ]
  - [   0.0019206451252103, -0.0022366656921804,  0.0213632248342037 ]
  - [   0.0011407593265176, -0.0026653311215341,  0.0208949781954288 ]
  - [   0.0014767074026167, -0.0022375450935215,  0.0213665720075369 ]
  - [   0.0011439165100455, -0.0018057199195027,  0.0218312852084637 ]
  - [   0.0014822841621935, -0.0022385399788618,  0.0213677417486906 ]
  - [   0.0015166183002293, -0.0022437046281993,  0.0213967002928257 ]
  - [   0.0014518238604069, -0.0022352607920766,  0.0213649477809668 ]
  - [   0.0015154080465436, -0.0022317422553897,  0.0213378574699163 ]
  - [   0.0019925357773900, -0.0022343033924699,  0.0213631205260754 ]
  - [   0.0011005476117134, -0.0017686281353235,  0.0209071673452854 ]
  - [   0.0014780999626964, -0.0022351527586579,  0.0213645584881306 ]
  - [   0.0011000009253621, -0.0026990449987352,  0.0218188595026731 ]
  - [   0.0024376399815083,  0.0051290490664542,  0.0144473835825920 ]
  - [   0.0007874780567363,  0.0069045461714268,  0.0165651366114616 ]
  - [   0.0007833562558517,  0.0069637969136238,  0.0167890340089798 ]
  - [   0.0024295507464558,  0.0087072495371103,  0.0188790038228035 ]
  - [   0.0024686940014362,  0.0088159879669547,  0.0146179310977459 ]
  - [   0.0007755131227896,  0.0069748391397297,  0.0165619775652885 ]
  - [   0.0007722517475486,  0.0068953530862927,  0.0167922452092171 ]
  - [   0.0024603446945548,  0.0050846850499511,  0.0187088735401630 ]
  - [   0.0007457989850082,  0.0071609257720411,  0.0168864689767361 ]
  - [   0.0007817889563739,  0.0069228531792760,  0.0166548192501068 ]
  - [   0.0007813344127499,  0.0069459723308682,  0.0167065784335136 ]
  - [   0.0007444040384144,  0.0067092995159328,  0.0164755508303642 ]
  - [   0.0007466976530850,  0.0067313145846128,  0.0168932043015957 ]
  - [   0.0007802983745933,  0.0069420691579580,  0.0166568160057068 ]
  - [   0.0007793258992024,  0.0069302367046475,  0.0167050957679749 ]
  - [   0.0007456836174242,  0.0071386061608791,  0.0164695046842098 ]
  - [   0.0017543213907629, -0.0010899975895882,  0.0020650103688240 ]
  - [  -0.0002556507824920,  0.0008090065093711, -0.0009373594075441 ]
  - [  -0.0002556683612056,  0.0008612929377705, -0.0009980308823287 ]
  - [   0.0017362167127430,  0.0027318932116032, -0.0039551379159093 ]
  - [   0.0017266140785068,  0.0027321265079081,  0.0020334841683507 ]
  - [  -0.0002620804589242,  0.0008665380883031, -0.0009384667500854 ]
  - [  -0.0002618001308292,  0.0008108646143228, -0.0009965212084353 ]
  - [   0.0017031207680702, -0.0010279850102961, -0.0039198151789606 ]
  - [  -0.0002702586643863,  0.0006957211880945, -0.0010448570828885 ]
  - [  -0.0001464725501137,  0.0008784239180386, -0.0009837839752436 ]
  - [  -0.0001496149343438,  0.0007953840540722, -0.0009560364997014 ]
  - [  -0.0002726376405917,  0.0009824804728851, -0.0009001257712953 ]
  - [  -0.0002723261131905,  0.0009797064121813, -0.0010183658450842 ]
  - [  -0.0001507613924332,  0.0007960868533701, -0.0009775599464774 ]
  - [  -0.0001515067997389,  0.0008748419350013, -0.0009577596210875 ]
  - [  -0.0002730277483352,  0.0006956026190892, -0.0009190514683723 ]
  - [  -0.0015842921566218, -0.0061486503109336, -0.0134694389998913 ]
  - [  -0.0017788684926927, -0.0060767652466893, -0.0134577937424183 ]
  - [  -0.0017792348517105, -0.0061022099107504, -0.0135331302881241 ]
  - [  -0.0015835865633562, -0.0060276975855231, -0.0135301053524017 ]
  - [  -0.0017931121401489, -0.0063402466475964, -0.0134987831115723 ]
  - [  -0.0016356994165108, -0.0060987756587565, -0.0134543329477310 ]
  - [  -0.0016351264202967, -0.0060805371031165, -0.0135379508137703 ]
  - [  -0.0017943835118786, -0.0058416551910341, -0.0134905353188515 ]
  - [  -0.0016816217685118, -0.0060656666755676, -0.0135739855468273 ]
  - [  -0.0017243027687073, -0.0060839820653200, -0.0134710408747196 ]
  - [  -0.0017244624905288, -0.0060941432602704, -0.0135239213705063 ]
  - [  -0.0016801562160254, -0.0061134546995163, -0.0134218931198120 ]
  - [  -0.0018021515570581, -0.0059330062940717, -0.0136293619871140 ]
  - [  -0.0016372671816498, -0.0060991044156253, -0.0134699381887913 ]
  - [  -0.0016362824244425, -0.0060792029835284, -0.0135240182280540 ]
  - [  -0.0018028087215498, -0.0062448047101498, -0.0133665874600410 ]
- atom:    1
  displacement:
    [  -0.0100000000000000,  0.0000000000000000,  0.0000000000000000 ]
  forces:
  - [   0.0157796423882246,  0.0005528680048883, -0.0236104428768158 ]
  - [  -0.0022956379689276,  0.0005364917451516, -0.0236706975847483 ]
  - [   0.0003909614169970,  0.0005543081788346, -0.0235803443938494 ]
  - [  -0.0023499000817537,  0.0005717296153307, -0.0234879683703184 ]
  - [   0.0000062687322497,  0.0005527669563890, -0.0235808044672012 ]
  - [  -0.0005258349701762,  0.0004620291292667, -0.0234262645244598 ]
  - [  -0.0003828303888440,  0.0005524251610041, -0.0235783122479916 ]
  - [  -0.0005329078994691,  0.0006493153050542, -0.0237349271774292 ]
  - [  -0.0003007130580954,  0.0005539180710912, -0.0235800389200449 ]
  - [  -0.0004035164602101,  0.0005524642765522, -0.0235831961035728 ]
  - [  -0.0003704911214299,  0.0005548438057303, -0.0235806442797184 ]
  - [  -0.0004033898003399,  0.0005551916547120, -0.0235765464603901 ]
  - [   0.0000075646676123,  0.0005508895264938, -0.0235805679112673 ]
  - [  -0.0005266247317195,  0.0006510900566354, -0.0234339497983456 ]
  - [  -0.0003820807323791,  0.0005523486761376, -0.0235778708010912 ]
  - [  -0.0005336352623999,  0.0004508700221777, -0.0237255319952965 ]
  - [   0.0015663463855162, -0.0022374130785465,  0.0213675275444984 ]
  - [   0.0015202914364636, -0.0022209421731532,  0.0213457141071558 ]
  - [   0.0015588980168104, -0.0022345939651132,  0.0213643852621317 ]
  - [   0.0015177535824478, -0.0022539319470525,  0.0213900692760944 ]
  - [   0.0010617100633681, -0.0022367555648088,  0.0213628578931093 ]
  - [   0.0018357671797276, -0.0018047111807391,  0.0218309164047241 ]
  - [   0.0015051523223519, -0.0022374775726348,  0.0213666632771492 ]
  - [   0.0018391311168671, -0.0026665069162846,  0.0208960790187120 ]
  - [   0.0014999960549176, -0.0022384598851204,  0.0213675834238529 ]
  - [   0.0014680442400277, -0.0022358135320246,  0.0213421732187271 ]
  - [   0.0015309556620196, -0.0022353408858180,  0.0213648453354836 ]
  - [   0.0014672400429845, -0.0022394647821784,  0.0213923119008541 ]
  - [   0.0009889823850244, -0.0022338787093759,  0.0213632024824619 ]
  - [   0.0018801903352141, -0.0026996741071343,  0.0218206159770489 ]
  - [   0.0014990206109360, -0.0022350633516908,  0.0213644634932280 ]
  - [   0.0018795360811055, -0.0017687496729195,  0.0209058672189713 ]
  - [  -0.0008834086474963,  0.0087101738899946,  0.0188840031623840 ]
  - [   0.0007616549264640,  0.0069635082036257,  0.0167909376323223 ]
  - [   0.0007574198534712,  0.0069050583988428,  0.0165649279952049 ]
  - [  -0.0008899579988793,  0.0051329713314772,  0.0144492201507092 ]
  - [  -0.0009138014866039,  0.0050826566293836,  0.0187107399106026 ]
  - [   0.0007750944932923,  0.0068961540237069,  0.0167939066886902 ]
  - [   0.0007715406827629,  0.0069739120081067,  0.0165621191263199 ]
  - [  -0.0009233207674697,  0.0088139493018389,  0.0146178230643272 ]
  - [   0.0008022751426324,  0.0067085386253893,  0.0164773911237717 ]
  - [   0.0007652047788724,  0.0069457069039345,  0.0167067050933838 ]
  - [   0.0007640887051821,  0.0069231465458870,  0.0166547298431396 ]
  - [   0.0008012083126232,  0.0071597537025809,  0.0168839506804943 ]
  - [   0.0008011530153453,  0.0071391817182302,  0.0164708904922009 ]
  - [   0.0007669955375604,  0.0069302683696151,  0.0167048834264278 ]
  - [   0.0007659914554097,  0.0069421846419573,  0.0166569538414478 ]
  - [   0.0007998608052731,  0.0067327134311199,  0.0168909989297390 ]
  - [  -0.0021167455706745,  0.0027332755271345, -0.0039578387513757 ]
  - [  -0.0001243313017767,  0.0008601765148342, -0.0009959461167455 ]
  - [  -0.0001239131670445,  0.0008102190331556, -0.0009398349793628 ]
  - [  -0.0021332432515919, -0.0010894718579948,  0.0020646241027862 ]
  - [  -0.0020869837608188, -0.0010250597260892, -0.0039189271628857 ]
  - [  -0.0001224004372489,  0.0008153046946973, -0.0010008178651333 ]
  - [  -0.0001232071081176,  0.0008616410195827, -0.0009350925683975 ]
  - [  -0.0021110845264047,  0.0027310666628182,  0.0020338431932032 ]
  - [  -0.0001107165735448,  0.0009826913010329, -0.0009000552818179 ]
  - [  -0.0002280144544784,  0.0007980299997143, -0.0009594038128853 ]
  - [  -0.0002316155296285,  0.0008758922340348, -0.0009806287707761 ]
  - [  -0.0001126089555328,  0.0006958671147004, -0.0010445446241647 ]
  - [  -0.0001120036395150,  0.0006949140224606, -0.0009184544906020 ]
  - [  -0.0002331736322958,  0.0008750045089982, -0.0009573670104146 ]
  - [  -0.0002337347395951,  0.0007960438379087, -0.0009776975493878 ]
  - [  -0.0001123823312810,  0.0009798646206036, -0.0010183467529714 ]
  - [  -0.0018212598515674, -0.0060273436829448, -0.0135315321385860 ]
  - [  -0.0016249516047537, -0.0061016473919153, -0.0135347582399845 ]
  - [  -0.0016276973765343, -0.0060772728174925, -0.0134577043354511 ]
  - [  -0.0018174711149186, -0.0061489287763834, -0.0134661458432674 ]
  - [  -0.0016109688440338, -0.0058423867449164, -0.0134896300733089 ]
  - [  -0.0017683486221358, -0.0060799191705883, -0.0135380215942860 ]
  - [  -0.0017690620152280, -0.0060990285128355, -0.0134550333023071 ]
  - [  -0.0016108847921714, -0.0063405316323042, -0.0134977772831917 ]
  - [  -0.0017254054546356, -0.0061141140758991, -0.0134229175746441 ]
  - [  -0.0016801222227514, -0.0060954885557294, -0.0135237462818623 ]
  - [  -0.0016810232773423, -0.0060832099989057, -0.0134713687002659 ]
  - [  -0.0017242629546672, -0.0060650110244751, -0.0135726928710938 ]
  - [  -0.0016021329211071, -0.0062453849241138, -0.0133669450879097 ]
  - [  -0.0017685687635094, -0.0060797533951700, -0.0135251320898533 ]
  - [  -0.0017680862220004, -0.0060987323522568, -0.0134694948792458 ]
  - [  -0.0016014848370105, -0.0059313606470823, -0.0136279314756393 ]
- atom:    1
  displacement:
    [   0.0000007408751940,  0.0099999999725552,  0.0000000000000000 ]
  forces:
  - [  -0.0003682863898575, -0.0140321021899581, -0.0235139951109886 ]
  - [  -0.0003867186605930, -0.0001951722661033, -0.0235875230282545 ]
  - [  -0.0003700761590153,  0.0004832569975406, -0.0235742777585983 ]
  - [  -0.0003572688437998, -0.0001912182196975, -0.0235890392214060 ]
  - [  -0.0003694598563015,  0.0020066387951374, -0.0238301046192646 ]
  - [  -0.0002701552584767,  0.0007887487299740, -0.0237083435058594 ]
  - [  -0.0003701569512486,  0.0005850754678249, -0.0235667638480663 ]
  - [  -0.0004690522328019,  0.0007866658270359, -0.0237060971558094 ]
  - [  -0.0003699379740283, -0.0000342400744557, -0.0235838368535042 ]
  - [  -0.0003723623231053,  0.0005701696500182, -0.0235813055187464 ]
  - [  -0.0003722224792000,  0.0005519092082977, -0.0235808249562979 ]
  - [  -0.0003691026940942,  0.0005702613852918, -0.0235808715224266 ]
  - [  -0.0003701057576109,  0.0019651511684060, -0.0233444701880217 ]
  - [  -0.0004637809470296,  0.0007793685654178, -0.0234529934823513 ]
  - [  -0.0003697751672007,  0.0005841695237905, -0.0235886313021183 ]
  - [  -0.0002775574102998,  0.0007755886763334, -0.0234494209289551 ]
  - [   0.0014920781832188, -0.0024035768583417,  0.0214177127927542 ]
  - [   0.0014711101539433, -0.0017932141199708,  0.0213947482407093 ]
  - [   0.0014914956409484, -0.0022250358015299,  0.0213692169636488 ]
  - [   0.0015119286254048, -0.0017925407737494,  0.0213938504457474 ]
  - [   0.0014911903999746, -0.0022302272263914,  0.0213067419826984 ]
  - [   0.0010574925690889, -0.0026153409853578,  0.0208744015544653 ]
  - [   0.0014910767786205, -0.0022293902002275,  0.0213850550353527 ]
  - [   0.0019221073016524, -0.0026162881404161,  0.0208756402134895 ]
  - [   0.0014911430189386, -0.0023061018437147,  0.0213647782802582 ]
  - [   0.0014884225092828, -0.0022506373934448,  0.0213643554598093 ]
  - [   0.0014914625789970, -0.0022742552682757,  0.0213576555252075 ]
  - [   0.0014952560886741, -0.0022465111687779,  0.0213599912822247 ]
  - [   0.0014908553566784, -0.0022478410974145,  0.0213571488857269 ]
  - [   0.0019558020867407, -0.0026174914091825,  0.0218252446502447 ]
  - [   0.0014885355485603, -0.0022142045199871,  0.0213490780442953 ]
  - [   0.0010246816091239, -0.0026167747564614,  0.0218235012143850 ]
  - [  -0.0009112186962739,  0.0087401028722525,  0.0190436914563179 ]
  - [   0.0005626559723169,  0.0069067263975739,  0.0166264176368713 ]
  - [   0.0009824387961999,  0.0069073275662959,  0.0166246592998505 ]
  - [   0.0024536862038076,  0.0087358150631189,  0.0190380178391933 ]
  - [   0.0024297884665430,  0.0087716504931450,  0.0143582187592983 ]
  - [   0.0009711927268654,  0.0069090500473976,  0.0167286805808544 ]
  - [   0.0005753080477007,  0.0069082137197256,  0.0167280808091164 ]
  - [  -0.0008797168266028,  0.0087688639760017,  0.0143577978014946 ]
  - [   0.0007819521124475,  0.0068898294121027,  0.0167449116706848 ]
  - [   0.0007682042196393,  0.0069395359605551,  0.0166546367108822 ]
  - [   0.0007778282742947,  0.0069399583153427,  0.0166545026004314 ]
  - [   0.0007645616424270,  0.0068883700296283,  0.0167425349354744 ]
  - [   0.0007704157615080,  0.0068822205066681,  0.0165942087769508 ]
  - [   0.0007789603550918,  0.0069427024573088,  0.0167077034711838 ]
  - [   0.0007671511266381,  0.0069424994289875,  0.0167075358331203 ]
  - [   0.0007765768095851,  0.0068819671869278,  0.0165924429893494 ]
  - [  -0.0021165520884097,  0.0028490710537881, -0.0040109930559993 ]
  - [  -0.0000653300958220,  0.0007554427138530, -0.0009085759520531 ]
  - [  -0.0003145315567963,  0.0007567078573629, -0.0009107440710068 ]
  - [   0.0017354933079332,  0.0028470982797444, -0.0040077939629555 ]
  - [   0.0017448712605983,  0.0028282059356570,  0.0020878287032247 ]
  - [  -0.0003219811769668,  0.0007618260569870, -0.0010341946035624 ]
  - [  -0.0000631919974694,  0.0007569763110951, -0.0010306187905371 ]
  - [  -0.0021284474059939,  0.0028267423622310,  0.0020879681687802 ]
  - [  -0.0001912706793519,  0.0007059199851938, -0.0009639246854931 ]
  - [  -0.0001542220707051,  0.0008843401446939, -0.0009824950248003 ]
  - [  -0.0002238617016701,  0.0008818840142339, -0.0009793294593692 ]
  - [  -0.0001918692141771,  0.0007058121263981, -0.0009638317278586 ]
  - [  -0.0001886579848360,  0.0006946794455871, -0.0009925169870257 ]