# Tetrahedron method
       -1.5645807335        0.0000000000
       -1.5019425291        0.0000000000
       -1.4393043247        0.0000000000
       -1.3766661203        0.0000000000
       -1.3140279159        0.0000000000
       -1.2513897114        0.0000000000
       -1.1887515070        0.0000000000
       -1.1261133026        0.0000000000
       -1.0634750982        0.0000000000
       -1.0008368938        0.0000000000
       -0.9381986893        0.0000000000
       -0.8755604849        0.0000000000
       -0.8129222805        0.0000000000
       -0.7502840761        0.0000000000
       -0.6876458717        0.0000000000
       -0.6250076672        0.0000000000
       -0.5623694628        0.0000000000
       -0.4997312584        0.0076144550
       -0.4370930540        0.0278390820
       -0.3744548496        0.0290104980
       -0.3118166451        0.0267427135
       -0.2491784407        0.0253786139
       -0.1865402363        0.0321391943
       -0.1239020319        0.0390017802
       -0.0612638275        0.0427758513
        0.0013743770        0.0465039629
        0.0640125814        0.0488792804
        0.1266507858        0.0555130792
        0.1892889902        0.0840711423
        0.2519271946        0.1277398476
        0.3145653991        0.1821778563
        0.3772036035        0.2424709681
        0.4398418079        0.3140709294
        0.5024800123        0.4167742024
        0.5651182167        0.4853958245
        0.6277564212        0.5207177609
        0.6903946256        0.5972159559
        0.7530328300        0.8870294120
        0.8156710344        1.0358795284
        0.8783092388        1.2085549903
        0.9409474433        1.4220684169
        1.0035856477        1.6542882392
        1.0662238521        2.0109917409
        1.1288620565        2.4336561781
        1.1915002609        2.8503014135
        1.2541384654        3.2273236312
        1.3167766698        4.2676797434
        1.3794148742        4.8122699556
        1.4420530786        5.2778092840
        1.5046912830        5.1675369059
        1.5673294875        5.6253017761
        1.6299676919        8.2406282947
        1.6926058963        5.4298204759
        1.7552441007        4.3047953663
        1.8178823051        4.7144206012
        1.8805205096        6.7668779094
        1.9431587140        6.7333396814
        2.0057969184        6.9448631957
        2.0684351228        6.1681688127
        2.1310733272        5.5185589780
        2.1937115317        6.1744248959
        2.2563497361        4.7706364574
        2.3189879405        3.0099441528
        2.3816261449        4.5267975651
        2.4442643493        4.1523942789
        2.5069025538        3.1042947208
        2.5695407582        1.5811320686
        2.6321789626        0.6252605848
        2.6948171670        0.0000000000
        2.7574553714        0.3784213622
        2.8200935759        2.0688619516
        2.8827317803        2.1131538445
        2.9453699847        2.9688723296
        3.0080081891        1.7435140678
        3.0706463935        1.4991305162
        3.1332845980        1.4294085240
        3.1959228024        1.7647929611
        3.2585610068        1.1104670902
        3.3211992112        0.9102135002
        3.3838374156        0.0000000000
        3.4464756201        0.0000000000
        3.5091138245        0.0000000000
        3.5717520289        0.0000000000
        3.6343902333        0.0000000000
        3.6970284377        0.0000000000
        3.7596666422        0.0000000000
        3.8223048466        0.0000000000
        3.8849430510        0.0000000000
        3.9475812554        0.0000000000
        4.0102194598        0.0000000000
        4.0728576643        0.0000000000
        4.1354958687        0.0000000000
        4.1981340731        0.0000000000
        4.2607722775        0.0000000000
        4.3234104819        0.0000000000
        4.3860486864        0.0000000000
        4.4486868908        0.0000000000
        4.5113250952        0.0000000000
        4.5739632996        0.0000000000
        4.6366015040        0.0000000000
        4.6992397085        0.0000000000
        4.7618779129        0.0000000000
        4.8245161173        0.0000000000
        4.8871543217        0.0000000000
        4.9497925261        0.0000000000
        5.0124307306        0.0000000000
        5.0750689350        0.0000000000
        5.1377071394        0.0000000000
        5.2003453438        0.0000000000
        5.2629835482        0.0000000000
        5.3256217527        0.0000000000
        5.3882599571        0.0000000000
        5.4508981615        0.0000000000
        5.5135363659        0.0000000000
        5.5761745703        0.0000000000
        5.6388127748        0.0000000000
        5.7014509792        0.0000000000
        5.7640891836        0.0000000000
        5.8267273880        0.0000000000
        5.8893655924        0.0000000000
        5.9520037969        0.0000000000
        6.0146420013        0.0000000000
        6.0772802057        0.0000000000
        6.1399184101        0.0000000000
        6.2025566145        0.0000000000
        6.2651948190        0.0000000000
        6.3278330234        0.5490134753
        6.3904712278        1.0783613130
        6.4531094322        1.2926757181
        6.5157476366        2.7130787930
        6.5783858411        2.8980487285
        6.6410240455        1.9923601242
        6.7036622499        4.3556459207
        6.7663004543        2.9908398210
        6.8289386587        3.8774769598
        6.8915768632        2.1788542959
        6.9542150676        1.4484900589
        7.0168532720        1.3948555738
        7.0794914764        1.2486047621
        7.1421296808        1.7852886512
        7.2047678853        1.3885798717
        7.2674060897        1.1348479651
        7.3300442941        1.0909711865
        7.3926824985        1.1231125513
        7.4553207029        1.1574687373
        7.5179589074        1.2004965119
        7.5805971118        1.3089841439
        7.6432353162        1.2045312427
        7.7058735206        1.2363853171
        7.7685117250        1.4534114338
        7.8311499294        1.6678746487
        7.8937881339        1.7992086444
        7.9564263383        1.6455049873
        8.0190645427        1.7244694453
        8.0817027471        2.2088994259
        8.1443409515        1.0302584518
        8.2069791560        0.9882620681
        8.2696173604        1.1317095221
        8.3322555648        1.1262390043
        8.3948937692        1.1336925528
        8.4575319736        1.5983408656
        8.5201701781        1.2492753899
        8.5828083825        1.4623339404
        8.6454465869        1.9899166494
        8.7080847913        1.5575015100
        8.7707229957        1.7081306714
        8.8333612002        1.4759156761
        8.8959994046        1.8636138232
        8.9586376090        2.9731255612
        9.0212758134        3.8507805427
        9.0839140178        3.7448685903
        9.1465522223        2.0517465967
        9.2091904267        2.0499901886
        9.2718286311        1.9450676764
        9.3344668355        1.8339525973
        9.3971050399        1.1234295785
        9.4597432444        0.8833904297
        9.5223814488        0.8359856313
        9.5850196532        0.8187633932
        9.6476578576        0.4541056655
        9.7102960620        0.4363723504
        9.7729342665        0.4239946632
        9.8355724709        0.4041010526
        9.8982106753        0.3274598369
        9.9608488797        0.0000000000
       10.0234870841        0.0000000000
       10.0861252886        0.0000000000
       10.1487634930        0.0000000000
       10.2114016974        0.0000000000
       10.2740399018        0.0000000000
       10.3366781062        0.0000000000
       10.3993163107        0.0000000000
       10.4619545151        0.0000000000
       10.5245927195        0.0000000000
       10.5872309239        0.0000000000
       10.6498691283        0.0000000000
       10.7125073328        0.0000000000
       10.7751455372        0.0000000000
       10.8377837416        0.0000000000
       10.9004219460        0.0000000000
       10.9630601504        0.0000000000
