phonopy:
  version: "2.37.1"
  frequency_unit_conversion_factor: 15.633302
  symmetry_tolerance: 1.00000e-05

space_group:
  type: "Cmcm"
  number: 63
  Hall_symbol: "-C 2c 2"

primitive_matrix:
- [  1.000000000000000,  0.000000000000000,  0.000000000000000 ]
- [  0.000000000000000,  1.000000000000000,  0.000000000000000 ]
- [  0.000000000000000,  0.000000000000000,  1.000000000000000 ]

supercell_matrix:
- [   2,   0,   0 ]
- [   0,   2,   0 ]
- [   0,   0,   2 ]

primitive_cell:
  lattice:
  - [     7.668154455379281,     0.000000000000000,     0.000000000000000 ] # a
  - [    -6.948973752651372,     3.242276503289274,     0.000000000000000 ] # b
  - [     0.000000244057804,    -0.000000225353237,     5.346565531527451 ] # c
  points:
  - symbol: Li # 1
    coordinates: [  0.993260126466661,  0.006739883345603,  0.999999996534951 ]
    mass: 6.940000
  - symbol: Li # 2
    coordinates: [  0.669432495179993,  0.330567519678023,  0.000000004203688 ]
    mass: 6.940000
  - symbol: Li # 3
    coordinates: [  0.552789733109501,  0.447210258354946,  0.499999998186104 ]
    mass: 6.940000
  - symbol: Li # 4
    coordinates: [  0.228962081295984,  0.771037881494602,  0.499999993645517 ]
    mass: 6.940000
  - symbol: Sn # 5
    coordinates: [  0.330018334639981,  0.669981666244659,  0.000000005729038 ]
    mass: 118.710000
  - symbol: Sn # 6
    coordinates: [  0.892203895570997,  0.107796124129193,  0.500000001814606 ]
    mass: 118.710000
  reciprocal_lattice: # without 2pi
  - [     0.130409475424493,     0.279498685846962,     0.000000005827757 ] # a*
  - [     0.000000000000000,     0.308425268167445,     0.000000012999865 ] # b*
  - [     0.000000000000000,     0.000000000000000,     0.187035956840561 ] # c*

unit_cell:
  lattice:
  - [     7.668154455379281,     0.000000000000000,     0.000000000000000 ] # a
  - [    -6.948973752651372,     3.242276503289274,     0.000000000000000 ] # b
  - [     0.000000244057804,    -0.000000225353237,     5.346565531527451 ] # c
  points:
  - symbol: Li # 1
    coordinates: [  0.993260126466661,  0.006739883345603,  0.999999996534951 ]
    mass: 6.940000
    reduced_to: 1
  - symbol: Li # 2
    coordinates: [  0.669432495179993,  0.330567519678023,  0.000000004203688 ]
    mass: 6.940000
    reduced_to: 2
  - symbol: Li # 3
    coordinates: [  0.552789733109501,  0.447210258354946,  0.499999998186104 ]
    mass: 6.940000
    reduced_to: 3
  - symbol: Li # 4
    coordinates: [  0.228962081295984,  0.771037881494602,  0.499999993645517 ]
    mass: 6.940000
    reduced_to: 4
  - symbol: Sn # 5
    coordinates: [  0.330018334639981,  0.669981666244659,  0.000000005729038 ]
    mass: 118.710000
    reduced_to: 5
  - symbol: Sn # 6
    coordinates: [  0.892203895570997,  0.107796124129193,  0.500000001814606 ]
    mass: 118.710000
    reduced_to: 6

supercell:
  lattice:
  - [    15.336308910758563,     0.000000000000000,     0.000000000000000 ] # a
  - [   -13.897947505302744,     6.484553006578548,     0.000000000000000 ] # b
  - [     0.000000488115608,    -0.000000450706475,    10.693131063054903 ] # c
  points:
  - symbol: Li # 1
    coordinates: [  0.496630063233330,  0.003369941672801,  0.499999998267475 ]
    mass: 6.940000
    reduced_to: 1
  - symbol: Li # 2
    coordinates: [  0.996630063233330,  0.003369941672801,  0.499999998267475 ]
    mass: 6.940000
    reduced_to: 1
  - symbol: Li # 3
    coordinates: [  0.496630063233330,  0.503369941672801,  0.499999998267475 ]
    mass: 6.940000
    reduced_to: 1
  - symbol: Li # 4
    coordinates: [  0.996630063233330,  0.503369941672801,  0.499999998267475 ]
    mass: 6.940000
    reduced_to: 1
  - symbol: Li # 5
    coordinates: [  0.496630063233330,  0.003369941672801,  0.999999998267475 ]
    mass: 6.940000
    reduced_to: 1
  - symbol: Li # 6
    coordinates: [  0.996630063233330,  0.003369941672801,  0.999999998267475 ]
    mass: 6.940000
    reduced_to: 1
  - symbol: Li # 7
    coordinates: [  0.496630063233330,  0.503369941672801,  0.999999998267475 ]
    mass: 6.940000
    reduced_to: 1
  - symbol: Li # 8
    coordinates: [  0.996630063233330,  0.503369941672801,  0.999999998267475 ]
    mass: 6.940000
    reduced_to: 1
  - symbol: Li # 9
    coordinates: [  0.334716247589997,  0.165283759839011,  0.000000002101844 ]
    mass: 6.940000
    reduced_to: 9
  - symbol: Li # 10
    coordinates: [  0.834716247589997,  0.165283759839011,  0.000000002101844 ]
    mass: 6.940000
    reduced_to: 9
  - symbol: Li # 11
    coordinates: [  0.334716247589997,  0.665283759839011,  0.000000002101844 ]
    mass: 6.940000
    reduced_to: 9
  - symbol: Li # 12
    coordinates: [  0.834716247589997,  0.665283759839011,  0.000000002101844 ]
    mass: 6.940000
    reduced_to: 9
  - symbol: Li # 13
    coordinates: [  0.334716247589997,  0.165283759839011,  0.500000002101844 ]
    mass: 6.940000
    reduced_to: 9
  - symbol: Li # 14
    coordinates: [  0.834716247589997,  0.165283759839011,  0.500000002101844 ]
    mass: 6.940000
    reduced_to: 9
  - symbol: Li # 15
    coordinates: [  0.334716247589997,  0.665283759839011,  0.500000002101844 ]
    mass: 6.940000
    reduced_to: 9
  - symbol: Li # 16
    coordinates: [  0.834716247589997,  0.665283759839011,  0.500000002101844 ]
    mass: 6.940000
    reduced_to: 9
  - symbol: Li # 17
    coordinates: [  0.276394866554751,  0.223605129177473,  0.249999999093052 ]
    mass: 6.940000
    reduced_to: 17
  - symbol: Li # 18
    coordinates: [  0.776394866554751,  0.223605129177473,  0.249999999093052 ]
    mass: 6.940000
    reduced_to: 17
  - symbol: Li # 19
    coordinates: [  0.276394866554751,  0.723605129177473,  0.249999999093052 ]
    mass: 6.940000
    reduced_to: 17
  - symbol: Li # 20
    coordinates: [  0.776394866554751,  0.723605129177473,  0.249999999093052 ]
    mass: 6.940000
    reduced_to: 17
  - symbol: Li # 21
    coordinates: [  0.276394866554751,  0.223605129177473,  0.749999999093052 ]
    mass: 6.940000
    reduced_to: 17
  - symbol: Li # 22
    coordinates: [  0.776394866554751,  0.223605129177473,  0.749999999093052 ]
    mass: 6.940000
    reduced_to: 17
  - symbol: Li # 23
    coordinates: [  0.276394866554751,  0.723605129177473,  0.749999999093052 ]
    mass: 6.940000
    reduced_to: 17
  - symbol: Li # 24
    coordinates: [  0.776394866554751,  0.723605129177473,  0.749999999093052 ]
    mass: 6.940000
    reduced_to: 17
  - symbol: Li # 25
    coordinates: [  0.114481040647992,  0.385518940747301,  0.249999996822758 ]
    mass: 6.940000
    reduced_to: 25
  - symbol: Li # 26
    coordinates: [  0.614481040647992,  0.385518940747301,  0.249999996822758 ]
    mass: 6.940000
    reduced_to: 25
  - symbol: Li # 27
    coordinates: [  0.114481040647992,  0.885518940747301,  0.249999996822758 ]
    mass: 6.940000
    reduced_to: 25
  - symbol: Li # 28
    coordinates: [  0.614481040647992,  0.885518940747301,  0.249999996822758 ]
    mass: 6.940000
    reduced_to: 25
  - symbol: Li # 29
    coordinates: [  0.114481040647992,  0.385518940747301,  0.749999996822758 ]
    mass: 6.940000
    reduced_to: 25
  - symbol: Li # 30
    coordinates: [  0.614481040647992,  0.385518940747301,  0.749999996822758 ]
    mass: 6.940000
    reduced_to: 25
  - symbol: Li # 31
    coordinates: [  0.114481040647992,  0.885518940747301,  0.749999996822758 ]
    mass: 6.940000
    reduced_to: 25
  - symbol: Li # 32
    coordinates: [  0.614481040647992,  0.885518940747301,  0.749999996822758 ]
    mass: 6.940000
    reduced_to: 25
  - symbol: Sn # 33
    coordinates: [  0.165009167319990,  0.334990833122330,  0.000000002864519 ]
    mass: 118.710000
    reduced_to: 33
  - symbol: Sn # 34
    coordinates: [  0.665009167319990,  0.334990833122330,  0.000000002864519 ]
    mass: 118.710000
    reduced_to: 33
  - symbol: Sn # 35
    coordinates: [  0.165009167319990,  0.834990833122330,  0.000000002864519 ]
    mass: 118.710000
    reduced_to: 33
  - symbol: Sn # 36
    coordinates: [  0.665009167319990,  0.834990833122330,  0.000000002864519 ]
    mass: 118.710000
    reduced_to: 33
  - symbol: Sn # 37
    coordinates: [  0.165009167319990,  0.334990833122330,  0.500000002864519 ]
    mass: 118.710000
    reduced_to: 33
  - symbol: Sn # 38
    coordinates: [  0.665009167319990,  0.334990833122330,  0.500000002864519 ]
    mass: 118.710000
    reduced_to: 33
  - symbol: Sn # 39
    coordinates: [  0.165009167319990,  0.834990833122330,  0.500000002864519 ]
    mass: 118.710000
    reduced_to: 33
  - symbol: Sn # 40
    coordinates: [  0.665009167319990,  0.834990833122330,  0.500000002864519 ]
    mass: 118.710000
    reduced_to: 33
  - symbol: Sn # 41
    coordinates: [  0.446101947785499,  0.053898062064597,  0.250000000907303 ]
    mass: 118.710000
    reduced_to: 41
  - symbol: Sn # 42
    coordinates: [  0.946101947785499,  0.053898062064597,  0.250000000907303 ]
    mass: 118.710000
    reduced_to: 41
  - symbol: Sn # 43
    coordinates: [  0.446101947785499,  0.553898062064596,  0.250000000907303 ]
    mass: 118.710000
    reduced_to: 41
  - symbol: Sn # 44
    coordinates: [  0.946101947785499,  0.553898062064596,  0.250000000907303 ]
    mass: 118.710000
    reduced_to: 41
  - symbol: Sn # 45
    coordinates: [  0.446101947785499,  0.053898062064597,  0.750000000907303 ]
    mass: 118.710000
    reduced_to: 41
  - symbol: Sn # 46
    coordinates: [  0.946101947785499,  0.053898062064597,  0.750000000907303 ]
    mass: 118.710000
    reduced_to: 41
  - symbol: Sn # 47
    coordinates: [  0.446101947785499,  0.553898062064596,  0.750000000907303 ]
    mass: 118.710000
    reduced_to: 41
  - symbol: Sn # 48
    coordinates: [  0.946101947785499,  0.553898062064596,  0.750000000907303 ]
    mass: 118.710000
    reduced_to: 41

displacements:
- atom:    1
  displacement:
    [   0.0082029306965722, -0.0000000002410693,  0.0057194342366386 ]
  forces:
  - [  -0.0056260842829943, -0.0013351016677916, -0.0088584609329700 ]
  - [   0.0127717982977629, -0.0028436998836696,  0.0000015168261598 ]
  - [   0.0127804651856422, -0.0028233421035111,  0.0000016042613424 ]
  - [   0.0127270277589560, -0.0021952609531581,  0.0002256530569866 ]
  - [   0.0120741575956345, -0.0026561571285129,  0.0010543535463512 ]
  - [   0.0126684382557869, -0.0028036152943969, -0.0000024798446248 ]
  - [   0.0126626491546631, -0.0028146966360509, -0.0000030404844438 ]
  - [   0.0126251298934221, -0.0028366819024086, -0.0001125577691710 ]
  - [  -0.0222504064440727,  0.0049398383125663,  0.0000606536341365 ]
  - [  -0.0223557129502296,  0.0049765668809414, -0.0000141974514918 ]
  - [  -0.0223440788686275,  0.0049450621008873, -0.0000136112421387 ]
  - [  -0.0222141146659851,  0.0049229124560952,  0.0000247991993092 ]
  - [  -0.0236005373299122,  0.0052774297073483, -0.0000941762700677 ]
  - [  -0.0200524330139160,  0.0057980609126389,  0.0000152769498527 ]
  - [  -0.0209616832435131,  0.0036469846963882,  0.0000160566414706 ]
  - [  -0.0222609229385853,  0.0049419421702623,  0.0000318299862556 ]
  - [   0.0223654285073280, -0.0049627916887403,  0.0000182559597306 ]
  - [   0.0227066688239574, -0.0050839446485043,  0.0000778544927016 ]
  - [   0.0227175615727901, -0.0047650095075369,  0.0004082932136953 ]
  - [   0.0224107056856155, -0.0049684187397361,  0.0000346997694578 ]
  - [   0.0223382972180843, -0.0049567632377148, -0.0000175525783561 ]
  - [   0.0230972543358803, -0.0042585916817188,  0.0014823687961325 ]
  - [   0.0227189995348454, -0.0056734583340585,  0.0011397334747016 ]
  - [   0.0223703011870384, -0.0049604130908847, -0.0000342652347172 ]
  - [  -0.0126568116247654,  0.0028176517225802, -0.0000222144226427 ]
  - [  -0.0132511258125305,  0.0029731420800090, -0.0001750452647684 ]
  - [  -0.0132520757615566,  0.0029120747931302, -0.0002104526938638 ]
  - [  -0.0128921605646610,  0.0028661568649113,  0.0002336217148695 ]
  - [  -0.0126039236783981,  0.0028058816678822,  0.0000547372037545 ]
  - [  -0.0128974169492722,  0.0027734488248825,  0.0003373325162102 ]
  - [  -0.0128452666103840,  0.0029430296272039,  0.0003725234419107 ]
  - [  -0.0134802982211113,  0.0029970020987093, -0.0006040058797225 ]
  - [  -0.0169093310832977,  0.0037518506869674,  0.0000158373732120 ]
  - [  -0.0168862342834473,  0.0035263486206532, -0.0002016439102590 ]
  - [  -0.0168379768729210,  0.0039089675992727, -0.0001998897641897 ]
  - [  -0.0168998092412949,  0.0037488602101803,  0.0000291839241982 ]
  - [  -0.0170915648341179,  0.0037649627774954, -0.0000202031515073 ]
  - [  -0.0122204571962357, -0.0003337245434523, -0.0001481511862949 ]
  - [  -0.0090924128890038,  0.0060438700020313, -0.0001416951417923 ]
  - [  -0.0167245492339134,  0.0037134476006031, -0.0000387851614505 ]
  - [   0.0205550715327263, -0.0045739356428385,  0.0048226388171315 ]
  - [   0.0169202610850334, -0.0037963595241308, -0.0000322601408698 ]
  - [   0.0169337615370750, -0.0037142513319850, -0.0000305183930323 ]
  - [   0.0170416980981827, -0.0036915969103575,  0.0001866447273642 ]
  - [   0.0167040005326271, -0.0037233661860228,  0.0002180259325542 ]
  - [   0.0169690400362015, -0.0037800678983331,  0.0000336444936693 ]
  - [   0.0169719457626343, -0.0037477966398001,  0.0000288352603093 ]
  - [   0.0170767679810524, -0.0036964248865843,  0.0000492447870784 ]
- atom:    1
  displacement:
    [  -0.0082029306965722,  0.0000000002410693, -0.0057194342366386 ]
  forces:
  - [   0.0312623754143715, -0.0043107229284942,  0.0089816013351083 ]
  - [   0.0125759318470955, -0.0027780709788203, -0.0000025148474379 ]
  - [   0.0125659145414829, -0.0027979095466435, -0.0000022542153602 ]
  - [   0.0126254893839359, -0.0034266731236130, -0.0002282330533490 ]
  - [   0.0132765118032694, -0.0029662782326341, -0.0010678924154490 ]
  - [   0.0126777142286301, -0.0028177481144667,  0.0000016279573174 ]
  - [   0.0126823130995035, -0.0028069713152945,  0.0000007867420209 ]
  - [   0.0127199236303568, -0.0027861506678164,  0.0001098584471038 ]
  - [  -0.0224510021507740,  0.0049756132066250, -0.0000614410455455 ]
  - [  -0.0223437696695328,  0.0049370443448424,  0.0000133173098220 ]
  - [  -0.0223547518253326,  0.0049690604209900,  0.0000139018311529 ]
  - [  -0.0224881954491138,  0.0049924012273550, -0.0000263777328655 ]
  - [  -0.0211304835975170,  0.0046425824984908,  0.0000924908745219 ]
  - [  -0.0246338061988354,  0.0041292170062661, -0.0000248184660450 ]
  - [  -0.0237393006682396,  0.0062577337957919, -0.0000240250956267 ]
  - [  -0.0224339365959167,  0.0049714585766196, -0.0000340190017596 ]
  - [   0.0223336108028889, -0.0049510160461068, -0.0000191261642613 ]
  - [   0.0219836905598640, -0.0048375139012933, -0.0000636803451926 ]
  - [   0.0219820290803909, -0.0051423786208034, -0.0004001109628007 ]
  - [   0.0222865045070648, -0.0049455892294645, -0.0000347429304384 ]
  - [   0.0223619341850281, -0.0049573471769691,  0.0000197576591745 ]
  - [   0.0216117799282074, -0.0056387707591057, -0.0014501311816275 ]
  - [   0.0219802297651768, -0.0042542908340693, -0.0011257892474532 ]
  - [   0.0223274342715740, -0.0049556782469153,  0.0000351643175236 ]
  - [  -0.0126883499324322,  0.0028040981851518,  0.0000239660184889 ]
  - [  -0.0120893400162458,  0.0026471521705389,  0.0001756238634698 ]
  - [  -0.0120889469981194,  0.0027097612619400,  0.0002139091957361 ]
  - [  -0.0124504901468754,  0.0027550370432436, -0.0002324603556190 ]
  - [  -0.0127439405769110,  0.0028163255192339, -0.0000549084506929 ]
  - [  -0.0124500505626202,  0.0028487211093307, -0.0003362496208865 ]
  - [  -0.0124996360391378,  0.0026793545112014, -0.0003745697904378 ]
  - [  -0.0118690859526396,  0.0026263738982379,  0.0006068832590245 ]
  - [  -0.0169253945350647,  0.0037545375525951, -0.0000146280508488 ]
  - [  -0.0169477313756943,  0.0039758421480656,  0.0002098151016980 ]
  - [  -0.0169943720102310,  0.0036012344062328,  0.0002121422439814 ]
  - [  -0.0169348344206810,  0.0037575829774141, -0.0000281631946564 ]
  - [  -0.0167376175522804,  0.0037406738847494,  0.0000185200478882 ]
  - [  -0.0216672010719776,  0.0079312343150377,  0.0001720024738461 ]
  - [  -0.0249294638633728,  0.0013659568503499,  0.0001785121858120 ]
  - [  -0.0171125680208206,  0.0037887506186962,  0.0000376221723855 ]
  - [   0.0132017135620117, -0.0029049953445792, -0.0050283977761865 ]
  - [   0.0169136151671410, -0.0037111928686500,  0.0000312742777169 ]
  - [   0.0169017165899277, -0.0037904437631369,  0.0000277993967757 ]
  - [   0.0167875066399574, -0.0038200318813324, -0.0002019405947067 ]
  - [   0.0171515941619873, -0.0037848819047213, -0.0002375744516030 ]
  - [   0.0168677121400833, -0.0037279706448317, -0.0000303453416564 ]
  - [   0.0168683752417564, -0.0037544630467892, -0.0000291093019769 ]
  - [   0.0167586281895638, -0.0038106571882963, -0.0000430571381003 ]
- atom:    9
  displacement:
    [   0.0082029306965722, -0.0000000002410693,  0.0057194342366386 ]
  forces:
  - [   0.0127728972584009, -0.0028284299187362,  0.0000617406476522 ]
  - [   0.0126687567681074, -0.0028476323932409, -0.0000143055822264 ]
  - [   0.0126797705888748, -0.0027667181566358, -0.0000139796611620 ]
  - [   0.0128108598291874, -0.0028455085121095,  0.0000248111664405 ]
  - [   0.0114517621695995, -0.0024962541647255, -0.0000944963394431 ]
  - [   0.0149606596678495, -0.0021861614659429,  0.0000231661288126 ]
  - [   0.0140640661120415, -0.0039082332514226,  0.0000213522744161 ]
  - [   0.0127610415220261, -0.0028255823999643,  0.0000332946910930 ]
  - [  -0.0400202944874763,  0.0065454309806228, -0.0046766786836088 ]
  - [  -0.0223083794116974,  0.0049598673358560,  0.0000048379670261 ]
  - [  -0.0223180055618286,  0.0049378629773855,  0.0000053487392506 ]
  - [  -0.0229051262140274,  0.0057833502069116,  0.0001945596304722 ]
  - [  -0.0224162861704826,  0.0049683339893818,  0.0000868483621161 ]
  - [  -0.0223723016679287,  0.0049614524468780, -0.0000059757148847 ]
  - [  -0.0223712474107742,  0.0049636010080576, -0.0000060062739067 ]
  - [  -0.0222925059497356,  0.0049397880211473,  0.0000106804072857 ]
  - [   0.0225045755505562, -0.0049849394708872,  0.0000300154788420 ]
  - [   0.0223610699176788, -0.0049048140645027,  0.0000523988856003 ]
  - [   0.0223364382982254, -0.0050095114856958,  0.0000227486598305 ]
  - [   0.0224325209856033, -0.0051471022889018,  0.0000190804130398 ]
  - [   0.0237330086529255, -0.0052561843767762,  0.0017967498861253 ]
  - [   0.0222910605370998, -0.0049876384437084, -0.0000508972443640 ]
  - [   0.0223058089613914, -0.0049049854278564, -0.0000222418457270 ]
  - [   0.0219380594789982, -0.0050290795043111, -0.0006895046681166 ]
  - [  -0.0126832854002714,  0.0028108209371567, -0.0000191459475900 ]
  - [  -0.0116293244063854,  0.0033957883715630,  0.0010521421208978 ]
  - [  -0.0120523702353239,  0.0020889397710562,  0.0007742416346446 ]
  - [  -0.0126543696969748,  0.0028090998530388, -0.0000280498898064 ]
  - [  -0.0126577336341143,  0.0028052087873220,  0.0000203410163522 ]
  - [  -0.0126071944832802,  0.0025011487305164,  0.0004987626452930 ]
  - [  -0.0125557407736778,  0.0033062095753849,  0.0007677058456466 ]
  - [  -0.0126074030995369,  0.0027985796332359,  0.0000299230450764 ]
  - [  -0.0169117972254753,  0.0037735272198915,  0.0000007655471563 ]
  - [  -0.0081828162074089,  0.0068457601591945,  0.0000010957010090 ]
  - [  -0.0120570659637451, -0.0012067817151546,  0.0000057630240917 ]
  - [  -0.0172416716814041,  0.0037822853773832, -0.0000129006803036 ]
  - [  -0.0169017165899277,  0.0037573557347059, -0.0000073265982792 ]
  - [  -0.0170698538422585,  0.0037731351330876, -0.0000668022548780 ]
  - [  -0.0170491188764572,  0.0037961695343256, -0.0000649029389024 ]
  - [  -0.0169114246964455,  0.0037417635321617,  0.0000015133991838 ]
  - [   0.0166245996952057, -0.0036601638421416, -0.0001966315321624 ]
  - [   0.0169308260083199, -0.0037605166435242, -0.0000373671064153 ]
  - [   0.0169232338666916, -0.0037466930225492, -0.0000386632746086 ]
  - [   0.0167026221752167, -0.0037506539374590, -0.0003515605349094 ]
  - [   0.0168957486748695, -0.0037202043458819,  0.0003229769063182 ]
  - [   0.0169407129287720, -0.0038431882858276,  0.0001025030505843 ]
  - [   0.0169680863618851, -0.0036750249564648,  0.0001022081123665 ]
  - [   0.0167188569903374, -0.0037534590810537,  0.0003298368537799 ]
- atom:    9
  displacement:
    [  -0.0082029306965722,  0.0000000002410693, -0.0057194342366386 ]
  forces:
  - [   0.0125724580138922, -0.0027926061302423, -0.0000603739099461 ]
  - [   0.0126807186752558, -0.0027745524421334,  0.0000131397737277 ]
  - [   0.0126689057797194, -0.0028552515432239,  0.0000133924331749 ]
  - [   0.0125368013978004, -0.0027760635130107, -0.0000263973397523 ]
  - [   0.0139218550175428, -0.0031310613267124,  0.0000921649625525 ]
  - [   0.0103785730898380, -0.0034413677640259, -0.0000169373943208 ]
  - [   0.0112863294780254, -0.0017107641324401, -0.0000186427441804 ]
  - [   0.0125882476568222, -0.0027962736785412, -0.0000325824585161 ]
  - [  -0.0049076117575169,  0.0033329715952277,  0.0047288332134485 ]
  - [  -0.0223891474306583,  0.0049536991864443, -0.0000065306876422 ]
  - [  -0.0223785452544689,  0.0049753841012716, -0.0000059262592913 ]
  - [  -0.0217879675328732,  0.0041275266557932, -0.0001928950659931 ]
  - [  -0.0222837515175343,  0.0049473410472274, -0.0000872554664966 ]
  - [  -0.0223273411393166,  0.0049533685669303,  0.0000054048141465 ]
  - [  -0.0223278403282166,  0.0049520600587130,  0.0000052959076129 ]
  - [  -0.0224073417484760,  0.0049741091206670, -0.0000134368892759 ]
  - [   0.0221998952329159, -0.0049298908561468, -0.0000375227537006 ]
  - [   0.0223407968878746, -0.0050083585083485, -0.0000494323903695 ]
  - [   0.0223670154809952, -0.0049082906916738, -0.0000206812983379 ]
  - [   0.0222664438188076, -0.0047674728557467, -0.0000184951131814 ]
  - [   0.0209371335804462, -0.0046485587954521, -0.0018438785336912 ]
  - [   0.0224131643772125, -0.0049301516264677,  0.0000509415986016 ]
  - [   0.0223969593644142, -0.0050098439678550,  0.0000211274018511 ]
  - [   0.0227836035192013, -0.0048748310655355,  0.0007241044659168 ]
  - [  -0.0126613173633814,  0.0028107427060604,  0.0000206651784538 ]
  - [  -0.0137066580355167,  0.0022458308376372, -0.0010320139117539 ]
  - [  -0.0132974237203598,  0.0035215253010392, -0.0007650771294720 ]
  - [  -0.0126894637942314,  0.0028120931237936,  0.0000301653344650 ]
  - [  -0.0126879233866930,  0.0028166081756353, -0.0000194349559024 ]
  - [  -0.0127385742962360,  0.0031188763678074, -0.0004918030463159 ]
  - [  -0.0127849113196135,  0.0023139542900026, -0.0007672525243834 ]
  - [  -0.0127393919974566,  0.0028232028707862, -0.0000282701221295 ]
  - [  -0.0169224664568901,  0.0037326142191887, -0.0000000644940883 ]
  - [  -0.0254792980849743,  0.0007669720798731, -0.0000340892001987 ]
  - [  -0.0217470265924931,  0.0086257308721542, -0.0000293366611004 ]
  - [  -0.0165990367531776,  0.0037255734205246,  0.0000135079026222 ]
  - [  -0.0169357806444168,  0.0037492383271456,  0.0000067116343416 ]
  - [  -0.0167701542377472,  0.0037316652014852,  0.0000623622909188 ]
  - [  -0.0167849063873291,  0.0037082647904754,  0.0000645136460662 ]
  - [  -0.0169287621974945,  0.0037614181637764, -0.0000021974556148 ]
  - [   0.0171739459037781, -0.0038381265476346,  0.0001820395700634 ]
  - [   0.0169023200869560, -0.0037455279380083,  0.0000362076098099 ]
  - [   0.0169112160801888, -0.0037587881088257,  0.0000363634317182 ]
  - [   0.0171360373497009, -0.0037553478032351,  0.0003573544672690 ]
  - [   0.0169413909316063, -0.0037859845906496, -0.0003265296109021 ]
  - [   0.0168942436575890, -0.0036632027477026, -0.0000997369061224 ]
  - [   0.0168704316020012, -0.0038284845650196, -0.0001026017125696 ]
  - [   0.0171141549944878, -0.0037499871104956, -0.0003348840982653 ]
- atom:   33
  displacement:
    [   0.0082029306965722, -0.0000000002410693,  0.0057194342366386 ]
  forces:
  - [   0.0126812048256397, -0.0028118663467467,  0.0000151673157234 ]
  - [   0.0126999504864216, -0.0027584731578827, -0.0002074927906506 ]
  - [   0.0127469468861818, -0.0029315049760044, -0.0002127222542185 ]
  - [   0.0126922633498907, -0.0028153359889984,  0.0000278170082311 ]
  - [   0.0124982986599207, -0.0027986550703645, -0.0000201125731110 ]
  - [   0.0174199510365725, -0.0073667308315635, -0.0001735064142849 ]
  - [   0.0206856913864613, -0.0000476348213851, -0.0001784553314792 ]
  - [   0.0128677263855934, -0.0028491956181824, -0.0000385665698559 ]
  - [  -0.0223479121923447,  0.0049796095117927,  0.0000001273992893 ]
  - [  -0.0137872509658337,  0.0081385802477598,  0.0000389076085412 ]
  - [  -0.0175235532224178, -0.0001033134758472,  0.0000337498859153 ]
  - [  -0.0226750634610653,  0.0049854200333357, -0.0000141462078318 ]
  - [  -0.0223327688872814,  0.0049618268385530, -0.0000078189077612 ]
  - [  -0.0225002095103264,  0.0049646543338895, -0.0000637472840026 ]
  - [  -0.0224825590848923,  0.0050155231729150, -0.0000630394206382 ]
  - [  -0.0223410725593567,  0.0049473661929369,  0.0000020828447305 ]
  - [   0.0220085047185421, -0.0048522222787142, -0.0001283040619455 ]
  - [   0.0223202742636204, -0.0049222139641643,  0.0000254714395851 ]
  - [   0.0223300233483315, -0.0049788802862167,  0.0000011965166777 ]
  - [   0.0219005160033703, -0.0049045914784074, -0.0000224272571359 ]
  - [   0.0223851539194584, -0.0049368701875210,  0.0002498340327293 ]
  - [   0.0224182419478893, -0.0049471361562610,  0.0000403976300731 ]
  - [   0.0224266424775124, -0.0049976995214820,  0.0000636675395072 ]
  - [   0.0223824791610241, -0.0050107175484300,  0.0000064990817918 ]
  - [  -0.0125544760376215,  0.0027657980099320, -0.0002607228816487 ]
  - [  -0.0126230400055647,  0.0028156731277704,  0.0000341474442394 ]
  - [  -0.0126182865351439,  0.0027833334170282,  0.0000266571914835 ]
  - [  -0.0125856958329678,  0.0028855307027698,  0.0001470520073781 ]
  - [  -0.0093459580093622,  0.0020586582832038,  0.0052757477387786 ]
  - [  -0.0126681830734015,  0.0028176135383546, -0.0000330835755449 ]
  - [  -0.0126587692648172,  0.0028002816252410, -0.0000251757446676 ]
  - [  -0.0124899335205555,  0.0028613558970392,  0.0000939207384363 ]
  - [  -0.0486445911228657,  0.0061610043048859, -0.0128600765019655 ]
  - [  -0.0169246196746826,  0.0037717241793871,  0.0000014518154785 ]
  - [  -0.0169390588998795,  0.0037410082295537,  0.0000031720846891 ]
  - [  -0.0161504521965981,  0.0054705012589693, -0.0019868500530720 ]
  - [  -0.0168003812432289,  0.0036923550069332,  0.0002212120161857 ]
  - [  -0.0169478282332420,  0.0037574507296085, -0.0000042438041419 ]
  - [  -0.0169445052742958,  0.0037594372406602, -0.0000030193477869 ]
  - [  -0.0173003897070885,  0.0039286296814680,  0.0010615058708936 ]
  - [   0.0169199332594872, -0.0037537235766649,  0.0000046817585826 ]
  - [   0.0178150534629822, -0.0076565891504288,  0.0038342331536114 ]
  - [   0.0202331095933914, -0.0005184346809983,  0.0050381231121719 ]
  - [   0.0169233530759811, -0.0037544555962086, -0.0000114780268632 ]
  - [   0.0169161781668663, -0.0037525035440922, -0.0000032333773561 ]
  - [   0.0156178846955299, -0.0032580886036158,  0.0006148933316581 ]
  - [   0.0163600444793701, -0.0035797739401460, -0.0005555651732720 ]
  - [   0.0169371441006660, -0.0037566889077425,  0.0000120405456983 ]
- atom:   33
  displacement:
    [  -0.0082029306965722,  0.0000000002410693, -0.0057194342366386 ]
  forces:
  - [   0.0126655083149672, -0.0028093676082790, -0.0000152814191097 ]
  - [   0.0126381646841764, -0.0028627160936594,  0.0002043076819973 ]
  - [   0.0125906318426132, -0.0026854150928557,  0.0001992896141019 ]
  - [   0.0126574728637934, -0.0028066374361515, -0.0000295328736684 ]
  - [   0.0128528140485287, -0.0028225379064679,  0.0000186833076441 ]
  - [   0.0079723838716745,  0.0016518160700798,  0.0001462008658564 ]
  - [   0.0048476234078407, -0.0054786261171103,  0.0001415493024979 ]
  - [   0.0124797243624926, -0.0027741966769099,  0.0000376828793378 ]
  - [  -0.0223583206534386,  0.0049385670572519, -0.0000003347477104 ]
  - [  -0.0310835801064968,  0.0016677454113960,  0.0000042584506446 ]
  - [  -0.0272122956812382,  0.0101201012730598, -0.0000013933386072 ]
  - [  -0.0220324657857418,  0.0049287015572190,  0.0000122110941447 ]
  - [  -0.0223669186234474,  0.0049535566940904,  0.0000064221094362 ]
  - [  -0.0222004093229771,  0.0049530193209648,  0.0000655888579786 ]
  - [  -0.0222183391451836,  0.0048978198319674,  0.0000664647086523 ]
  - [  -0.0223586633801460,  0.0049669370055199, -0.0000015029800124 ]
  - [   0.0226647816598415, -0.0050537735223770,  0.0000969041138887 ]
  - [   0.0223788432776928, -0.0049923527985811, -0.0000263738911599 ]
  - [   0.0223726630210876, -0.0049369409680367, -0.0000019980943762 ]
  - [   0.0227938406169415, -0.0050113461911678,  0.0000265891758318 ]
  - [   0.0223240815103054, -0.0049793906509876, -0.0002468671300448 ]
  - [   0.0222848206758499, -0.0049682278186083, -0.0000371444621123 ]
  - [   0.0222744159400463, -0.0049189180135727, -0.0000626075197943 ]
  - [   0.0223179459571838, -0.0049048000946641,  0.0000011849988368 ]
  - [  -0.0127322319895029,  0.0028430833481252,  0.0001800737809390 ]
  - [  -0.0127215515822172,  0.0028044739738107, -0.0000333139541908 ]
  - [  -0.0127264093607664,  0.0028403722681105, -0.0000247380739893 ]
  - [  -0.0127687752246857,  0.0027411654591560, -0.0001389245153405 ]
  - [  -0.0160738900303841,  0.0035894422326237, -0.0054716640152037 ]
  - [  -0.0126780271530151,  0.0028052623383701,  0.0000345344305970 ]
  - [  -0.0126862376928329,  0.0028209276497364,  0.0000261218519881 ]
  - [  -0.0128794666379690,  0.0027623740024865, -0.0001009251573123 ]
  - [   0.0148012638092041,  0.0013020187616348,  0.0129583533853292 ]
  - [  -0.0169084891676903,  0.0037362258881330, -0.0000041918829083 ]
  - [  -0.0168957263231277,  0.0037633143365383, -0.0000018524006009 ]