# Thermal properties / unit cell (natom)

unit:
  temperature:   K
  free_energy:   kJ/mol
  entropy:       J/K/mol
  heat_capacity: J/K/mol

natom: 6    
cutoff_frequency: 0.00000
num_modes: 328662
num_integrated_modes: 328640

zero_point_energy:      19.8120814

thermal_properties:
- temperature:         0.0000000
  free_energy:        19.8120814
  entropy:             0.0000000
  heat_capacity:       0.0000000
  energy:             19.8120814

- temperature:        10.0000000
  free_energy:        19.8089546
  entropy:             1.1413781
  heat_capacity:       3.1333113
  energy:             19.8203683

- temperature:        20.0000000
  free_energy:        19.7732366
  entropy:             6.7611252
  heat_capacity:      15.2392829
  energy:             19.9084591

- temperature:        30.0000000
  free_energy:        19.6640551
  entropy:            15.3181521
  heat_capacity:      27.3504775
  energy:             20.1235997

- temperature:        40.0000000
  free_energy:        19.4647473
  entropy:            24.5697047
  heat_capacity:      37.1638738
  energy:             20.4475355

- temperature:        50.0000000
  free_energy:        19.1727114
  entropy:            33.8232051
  heat_capacity:      46.0429976
  energy:             20.8638716

- temperature:        60.0000000
  free_energy:        18.7885779
  entropy:            42.9903732
  heat_capacity:      54.7782198
  energy:             21.3680003

- temperature:        70.0000000
  free_energy:        18.3131383
  entropy:            52.0861675
  heat_capacity:      63.4255309
  energy:             21.9591700

- temperature:        80.0000000
  free_energy:        17.7471091
  entropy:            61.1046987
  heat_capacity:      71.7657413
  energy:             22.6354850

- temperature:        90.0000000
  free_energy:        17.0914057
  entropy:            70.0145151
  heat_capacity:      79.5772700
  energy:             23.3927121

- temperature:       100.0000000
  free_energy:        16.3473175
  entropy:            78.7748478
  heat_capacity:      86.7232775
  energy:             24.2248023

- temperature:       110.0000000
  free_energy:        15.5165347
  entropy:            87.3476908
  heat_capacity:      93.1522099
  energy:             25.1247807

- temperature:       120.0000000
  free_energy:        14.6010889
  entropy:            95.7032769
  heat_capacity:      98.8730029
  energy:             26.0854822

- temperature:       130.0000000
  free_energy:        13.6032621
  entropy:           103.8212631
  heat_capacity:     103.9300058
  energy:             27.1000263

- temperature:       140.0000000
  free_energy:        12.5254958
  entropy:           111.6898410
  heat_capacity:     108.3845428
  energy:             28.1620736

- temperature:       150.0000000
  free_energy:        11.3703136
  entropy:           119.3041171
  heat_capacity:     112.3032025
  energy:             29.2659311

- temperature:       160.0000000
  free_energy:        10.1402604
  entropy:           126.6644293
  heat_capacity:     115.7511452
  energy:             30.4065691

- temperature:       170.0000000
  free_energy:         8.8378581
  entropy:           133.7748742
  heat_capacity:     118.7886932
  energy:             31.5795868

- temperature:       180.0000000
  free_energy:         7.4655738
  entropy:           140.6421231
  heat_capacity:     121.4699083
  energy:             32.7811559

- temperature:       190.0000000
  free_energy:         6.0257987
  entropy:           147.2745133
  heat_capacity:     123.8422927
  energy:             34.0079562

- temperature:       200.0000000
  free_energy:         4.5208353
  entropy:           153.6813755
  heat_capacity:     125.9470807
  energy:             35.2571104

- temperature:       210.0000000
  free_energy:         2.9528901
  entropy:           159.8725461
  heat_capacity:     127.8198051
  energy:             36.5261248

- temperature:       220.0000000
  free_energy:         1.3240700
  entropy:           165.8580231
  heat_capacity:     129.4909599
  energy:             37.8128351

- temperature:       230.0000000
  free_energy:        -0.3636178
  entropy:           171.6477277
  heat_capacity:     130.9866643
  energy:             39.1153596

- temperature:       240.0000000
  free_energy:        -2.1082643
  entropy:           177.2513447
  heat_capacity:     132.3292809
  energy:             40.4320585

- temperature:       250.0000000
  free_energy:        -3.9080556
  entropy:           182.6782187
  heat_capacity:     133.5379676
  energy:             41.7614991

- temperature:       260.0000000
  free_energy:        -5.7612693
  entropy:           187.9372914
  heat_capacity:     134.6291590
  energy:             43.1024264

- temperature:       270.0000000
  free_energy:        -7.6662705
  entropy:           193.0370681
  heat_capacity:     135.6169798
  energy:             44.4537379

- temperature:       280.0000000
  free_energy:        -9.6215066
  entropy:           197.9856029
  heat_capacity:     136.5135962
  energy:             45.8144622

- temperature:       290.0000000
  free_energy:       -11.6255038
  entropy:           202.7904992
  heat_capacity:     137.3295129
  energy:             47.1837410

- temperature:       300.0000000
  free_energy:       -13.6768617
  entropy:           207.4589187
  heat_capacity:     138.0738239
  energy:             48.5608139

- temperature:       310.0000000
  free_energy:       -15.7742497
  entropy:           211.9975966
  heat_capacity:     138.7544231
  energy:             49.9450052

- temperature:       320.0000000
  free_energy:       -17.9164023
  entropy:           216.4128603
  heat_capacity:     139.3781812
  energy:             51.3357130

- temperature:       330.0000000
  free_energy:       -20.1021154
  entropy:           220.7106510
  heat_capacity:     139.9510948
  energy:             52.7323994

- temperature:       340.0000000
  free_energy:       -22.3302424
  entropy:           224.8965452
  heat_capacity:     140.4784120
  energy:             54.1345830

- temperature:       350.0000000
  free_energy:       -24.5996908
  entropy:           228.9757769
  heat_capacity:     140.9647384
  energy:             55.5418311

- temperature:       360.0000000
  free_energy:       -26.9094188
  entropy:           232.9532596
  heat_capacity:     141.4141261
  energy:             56.9537547

- temperature:       370.0000000
  free_energy:       -29.2584322
  entropy:           236.8336073
  heat_capacity:     141.8301499
  energy:             58.3700025

- temperature:       380.0000000
  free_energy:       -31.6457816
  entropy:           240.6211544
  heat_capacity:     142.2159713
  energy:             59.7902570

- temperature:       390.0000000
  free_energy:       -34.0705596
  entropy:           244.3199748
  heat_capacity:     142.5743934
  energy:             61.2142306

- temperature:       400.0000000
  free_energy:       -36.5318982
  entropy:           247.9339002
  heat_capacity:     142.9079074
  energy:             62.6416619

- temperature:       410.0000000
  free_energy:       -39.0289667
  entropy:           251.4665361
  heat_capacity:     143.2187328
  energy:             64.0723131

- temperature:       420.0000000
  free_energy:       -41.5609693
  entropy:           254.9212781
  heat_capacity:     143.5088510
  energy:             65.5059675

- temperature:       430.0000000
  free_energy:       -44.1271433
  entropy:           258.3013263
  heat_capacity:     143.7800354
  energy:             66.9424271

- temperature:       440.0000000
  free_energy:       -46.7267569
  entropy:           261.6096985
  heat_capacity:     144.0338761
  energy:             68.3815105

- temperature:       450.0000000
  free_energy:       -49.3591078
  entropy:           264.8492431
  heat_capacity:     144.2718020
  energy:             69.8230516

- temperature:       460.0000000
  free_energy:       -52.0235213
  entropy:           268.0226502
  heat_capacity:     144.4951001
  energy:             71.2668977

- temperature:       470.0000000
  free_energy:       -54.7193489
  entropy:           271.1324628
  heat_capacity:     144.7049311
  energy:             72.7129087

- temperature:       480.0000000
  free_energy:       -57.4459666
  entropy:           274.1810867
  heat_capacity:     144.9023446
  energy:             74.1609550

- temperature:       490.0000000
  free_energy:       -60.2027742
  entropy:           277.1707992
  heat_capacity:     145.0882907
  energy:             75.6109174

- temperature:       500.0000000
  free_energy:       -62.9891934
  entropy:           280.1037578
  heat_capacity:     145.2636316
  energy:             77.0626855

- temperature:       510.0000000
  free_energy:       -65.8046670
  entropy:           282.9820084
  heat_capacity:     145.4291508
  energy:             78.5161573

- temperature:       520.0000000
  free_energy:       -68.6486577
  entropy:           285.8074920
  heat_capacity:     145.5855613
  energy:             79.9712381

- temperature:       530.0000000
  free_energy:       -71.5206471
  entropy:           288.5820518
  heat_capacity:     145.7335134
  energy:             81.4278403

- temperature:       540.0000000
  free_energy:       -74.4201349
  entropy:           291.3074390
  heat_capacity:     145.8736008
  energy:             82.8858822

- temperature:       550.0000000
  free_energy:       -77.3466376
  entropy:           293.9853191
  heat_capacity:     146.0063664
  energy:             84.3452879

- temperature:       560.0000000
  free_energy:       -80.2996882
  entropy:           296.6172767
  heat_capacity:     146.1323077
  energy:             85.8059868

- temperature:       570.0000000
  free_energy:       -83.2788351
  entropy:           299.2048209
  heat_capacity:     146.2518807
  energy:             87.2679128

- temperature:       580.0000000
  free_energy:       -86.2836414
  entropy:           301.7493895
  heat_capacity:     146.3655045
  energy:             88.7310046

- temperature:       590.0000000
  free_energy:       -89.3136842
  entropy:           304.2523535
  heat_capacity:     146.4735644
  energy:             90.1952044

- temperature:       600.0000000
  free_energy:       -92.3685541
  entropy:           306.7150210
  heat_capacity:     146.5764152
  energy:             91.6604585

- temperature:       610.0000000
  free_energy:       -95.4478545
  entropy:           309.1386408
  heat_capacity:     146.6743841
  energy:             93.1267164

- temperature:       620.0000000
  free_energy:       -98.5512008
  entropy:           311.5244059
  heat_capacity:     146.7677733
  energy:             94.5939309

- temperature:       630.0000000
  free_energy:      -101.6782202
  entropy:           313.8734567
  heat_capacity:     146.8568621
  energy:             96.0620576

- temperature:       640.0000000
  free_energy:      -104.8285511
  entropy:           316.1868841
  heat_capacity:     146.9419088
  energy:             97.5310547

- temperature:       650.0000000
  free_energy:      -108.0018426
  entropy:           318.4657318
  heat_capacity:     147.0231528
  energy:             99.0008831

- temperature:       660.0000000
  free_energy:      -111.1977539
  entropy:           320.7109995
  heat_capacity:     147.1008162
  energy:            100.4715058

- temperature:       670.0000000
  free_energy:      -114.4159539
  entropy:           322.9236448
  heat_capacity:     147.1751052
  energy:            101.9428881

- temperature:       680.0000000
  free_energy:      -117.6561211
  entropy:           325.1045858
  heat_capacity:     147.2462113
  energy:            103.4149973

- temperature:       690.0000000
  free_energy:      -120.9179429
  entropy:           327.2547032
  heat_capacity:     147.3143130
  energy:            104.8878023

- temperature:       700.0000000
  free_energy:      -124.2011152
  entropy:           329.3748419
  heat_capacity:     147.3795762
  energy:            106.3612741

- temperature:       710.0000000
  free_energy:      -127.5053425
  entropy:           331.4658132
  heat_capacity:     147.4421557
  energy:            107.8353849

- temperature:       720.0000000
  free_energy:      -130.8303369
  entropy:           333.5283967
  heat_capacity:     147.5021960
  energy:            109.3101087

- temperature:       730.0000000
  free_energy:      -134.1758183
  entropy:           335.5633412
  heat_capacity:     147.5598319
  energy:            110.7854208

- temperature:       740.0000000
  free_energy:      -137.5415140
  entropy:           337.5713672
  heat_capacity:     147.6151896
  energy:            112.2612978

- temperature:       750.0000000
  free_energy:      -140.9271582
  entropy:           339.5531675
  heat_capacity:     147.6683869
  energy:            113.7377174

- temperature:       760.0000000
  free_energy:      -144.3324921
  entropy:           341.5094089
  heat_capacity:     147.7195345
  energy:            115.2146587

- temperature:       770.0000000
  free_energy:      -147.7572633
  entropy:           343.4407337
  heat_capacity:     147.7687358
  energy:            116.6921016

- temperature:       780.0000000
  free_energy:      -151.2012258
  entropy:           345.3477603
  heat_capacity:     147.8160879
  energy:            118.1700272

- temperature:       790.0000000
  free_energy:      -154.6641395
  entropy:           347.2310849
  heat_capacity:     147.8616820
  energy:            119.6484175

- temperature:       800.0000000
  free_energy:      -158.1457704
  entropy:           349.0912821
  heat_capacity:     147.9056036
  energy:            121.1272553

- temperature:       810.0000000
  free_energy:      -161.6458899
  entropy:           350.9289064
  heat_capacity:     147.9479334
  energy:            122.6065243

- temperature:       820.0000000
  free_energy:      -165.1642751
  entropy:           352.7444927
  heat_capacity:     147.9887469
  energy:            124.0862089

- temperature:       830.0000000
  free_energy:      -168.7007080
  entropy:           354.5385572
  heat_capacity:     148.0281155
  energy:            125.5662944

- temperature:       840.0000000
  free_energy:      -172.2549761
  entropy:           356.3115985
  heat_capacity:     148.0661064
  energy:            127.0467666

- temperature:       850.0000000
  free_energy:      -175.8268715
  entropy:           358.0640985
  heat_capacity:     148.1027829
  energy:            128.5276122

- temperature:       860.0000000
  free_energy:      -179.4161912
  entropy:           359.7965225
  heat_capacity:     148.1382047
  energy:            130.0088181

- temperature:       870.0000000
  free_energy:      -183.0227366
  entropy:           361.5093205
  heat_capacity:     148.1724282
  energy:            131.4903723

- temperature:       880.0000000
  free_energy:      -186.6463136
  entropy:           363.2029278
  heat_capacity:     148.2055067
  energy:            132.9722629

- temperature:       890.0000000
  free_energy:      -190.2867326
  entropy:           364.8777655
  heat_capacity:     148.2374905
  energy:            134.4544787

- temperature:       900.0000000
  free_energy:      -193.9438077
  entropy:           366.5342410
  heat_capacity:     148.2684273
  energy:            135.9370092

- temperature:       910.0000000
  free_energy:      -197.6173575
  entropy:           368.1727488
  heat_capacity:     148.2983621
  energy:            137.4198439

- temperature:       920.0000000
  free_energy:      -201.3072041
  entropy:           369.7936710
  heat_capacity:     148.3273376
  energy:            138.9029732

- temperature:       930.0000000
  free_energy:      -205.0131735
  entropy:           371.3973776
  heat_capacity:     148.3553943
  energy:            140.3863876

- temperature:       940.0000000
  free_energy:      -208.7350955
  entropy:           372.9842273
  heat_capacity:     148.3825704
  energy:            141.8700782

- temperature:       950.0000000
  free_energy:      -212.4728031
  entropy:           374.5545677
  heat_capacity:     148.4089024
  energy:            143.3540362

- temperature:       960.0000000
  free_energy:      -216.2261329
  entropy:           376.1087359
  heat_capacity:     148.4344248
  energy:            144.8382535

- temperature:       970.0000000
  free_energy:      -219.9949250
  entropy:           377.6470589
  heat_capacity:     148.4591702
  energy:            146.3227221

- temperature:       980.0000000
  free_energy:      -223.7790223
  entropy:           379.1698539
  heat_capacity:     148.4831699
  energy:            147.8074344

- temperature:       990.0000000
  free_energy:      -227.5782713
  entropy:           380.6774287
  heat_capacity:     148.5064535
  energy:            149.2923832

- temperature:      1000.0000000
  free_energy:      -231.3925212
  entropy:           382.1700824
  heat_capacity:     148.5290490
  energy:            150.7775612
