phonopy:
  version: "2.37.1"
  frequency_unit_conversion_factor: 15.633302
  symmetry_tolerance: 1.00000e-05

space_group:
  type: "P1"
  number: 1
  Hall_symbol: "P 1"

primitive_matrix:
- [  1.000000000000000,  0.000000000000000, -0.000000000000000 ]
- [  0.000000000000000,  1.000000000000000, -0.000000000000000 ]
- [  0.000000000000000,  1.000000000000000,  1.000000000000000 ]

supercell_matrix:
- [   2,   0,   0 ]
- [   0,   2,   0 ]
- [   0,   0,   2 ]

primitive_cell:
  lattice:
  - [     5.548507401460331,     0.000000000000000,     0.000000000000000 ] # a
  - [     0.000598268200305,     2.938379226744195,     5.088657453065388 ] # b
  - [     0.000789242422115,    -2.941161763645236,     5.088657453065388 ] # c
  points:
  - symbol: Sn # 1
    coordinates: [  0.455290819149303,  0.246834894798554,  0.104874203148138 ]
    mass: 118.710000
  - symbol: Sn # 2
    coordinates: [  0.954816329860638,  0.914445263375191,  0.437326561268985 ]
    mass: 118.710000
  - symbol: Sn # 3
    coordinates: [  0.454759653101284,  0.580049318417084,  0.438069059312997 ]
    mass: 118.710000
  - symbol: Sn # 4
    coordinates: [  0.955157616437888,  0.247712742647156,  0.771035261579912 ]
    mass: 118.710000
  - symbol: Sn # 5
    coordinates: [  0.454616621276729,  0.913438467715658,  0.771080738035570 ]
    mass: 118.710000
  - symbol: Sn # 6
    coordinates: [  0.954943266661095,  0.581400726965313,  0.103921442471831 ]
    mass: 118.710000
  reciprocal_lattice: # without 2pi
  - [     0.180228650273911,     0.000005854032873,    -0.000024569631574 ] # a*
  - [     0.000000000000000,     0.170081304243746,     0.098304244953898 ] # b*
  - [     0.000000000000000,    -0.170081304243746,     0.098211242524554 ] # c*

unit_cell:
  lattice:
  - [     5.548507401460331,     0.000000000000000,     0.000000000000000 ] # a
  - [    -0.000190974221810,     5.879540990389431,     0.000000000000000 ] # b
  - [     0.000789242422115,    -2.941161763645236,     5.088657453065388 ] # c
  points:
  - symbol: Sn # 1
    coordinates: [  0.455290819149303,  0.246834894798554,  0.351709097946692 ]
    mass: 118.710000
    reduced_to: 1
  - symbol: Sn # 2
    coordinates: [  0.954816329860638,  0.914445263375191,  0.351771824644176 ]
    mass: 118.710000
    reduced_to: 2
  - symbol: Sn # 3
    coordinates: [  0.454759653101284,  0.580049318417084,  0.018118377730080 ]
    mass: 118.710000
    reduced_to: 3
  - symbol: Sn # 4
    coordinates: [  0.955157616437888,  0.247712742647156,  0.018748004227068 ]
    mass: 118.710000
    reduced_to: 4
  - symbol: Sn # 5
    coordinates: [  0.454616621276729,  0.913438467715658,  0.684519205751228 ]
    mass: 118.710000
    reduced_to: 5
  - symbol: Sn # 6
    coordinates: [  0.954943266661095,  0.581400726965313,  0.685322169437144 ]
    mass: 118.710000
    reduced_to: 6

supercell:
  lattice:
  - [    11.097014802920661,     0.000000000000000,     0.000000000000000 ] # a
  - [    -0.000381948443620,    11.759081980778863,     0.000000000000000 ] # b
  - [     0.001578484844229,    -5.882323527290471,    10.177314906130777 ] # c
  points:
  - symbol: Sn # 1
    coordinates: [  0.227645409574651,  0.123417447399277,  0.175854548973346 ]
    mass: 118.710000
    reduced_to: 1
  - symbol: Sn # 2
    coordinates: [  0.727645409574651,  0.123417447399277,  0.175854548973346 ]
    mass: 118.710000
    reduced_to: 1
  - symbol: Sn # 3
    coordinates: [  0.227645409574651,  0.623417447399277,  0.175854548973346 ]
    mass: 118.710000
    reduced_to: 1
  - symbol: Sn # 4
    coordinates: [  0.727645409574651,  0.623417447399277,  0.175854548973346 ]
    mass: 118.710000
    reduced_to: 1
  - symbol: Sn # 5
    coordinates: [  0.227645409574651,  0.123417447399277,  0.675854548973346 ]
    mass: 118.710000
    reduced_to: 1
  - symbol: Sn # 6
    coordinates: [  0.727645409574651,  0.123417447399277,  0.675854548973346 ]
    mass: 118.710000
    reduced_to: 1
  - symbol: Sn # 7
    coordinates: [  0.227645409574651,  0.623417447399277,  0.675854548973346 ]
    mass: 118.710000
    reduced_to: 1
  - symbol: Sn # 8
    coordinates: [  0.727645409574651,  0.623417447399277,  0.675854548973346 ]
    mass: 118.710000
    reduced_to: 1
  - symbol: Sn # 9
    coordinates: [  0.477408164930319,  0.457222631687595,  0.175885912322088 ]
    mass: 118.710000
    reduced_to: 9
  - symbol: Sn # 10
    coordinates: [  0.977408164930319,  0.457222631687595,  0.175885912322088 ]
    mass: 118.710000
    reduced_to: 9
  - symbol: Sn # 11
    coordinates: [  0.477408164930319,  0.957222631687595,  0.175885912322088 ]
    mass: 118.710000
    reduced_to: 9
  - symbol: Sn # 12
    coordinates: [  0.977408164930319,  0.957222631687595,  0.175885912322088 ]
    mass: 118.710000
    reduced_to: 9
  - symbol: Sn # 13
    coordinates: [  0.477408164930319,  0.457222631687595,  0.675885912322088 ]
    mass: 118.710000
    reduced_to: 9
  - symbol: Sn # 14
    coordinates: [  0.977408164930319,  0.457222631687595,  0.675885912322088 ]
    mass: 118.710000
    reduced_to: 9
  - symbol: Sn # 15
    coordinates: [  0.477408164930319,  0.957222631687595,  0.675885912322088 ]
    mass: 118.710000
    reduced_to: 9
  - symbol: Sn # 16
    coordinates: [  0.977408164930319,  0.957222631687595,  0.675885912322088 ]
    mass: 118.710000
    reduced_to: 9
  - symbol: Sn # 17
    coordinates: [  0.227379826550642,  0.290024659208542,  0.009059188865040 ]
    mass: 118.710000
    reduced_to: 17
  - symbol: Sn # 18
    coordinates: [  0.727379826550642,  0.290024659208542,  0.009059188865040 ]
    mass: 118.710000
    reduced_to: 17
  - symbol: Sn # 19
    coordinates: [  0.227379826550642,  0.790024659208542,  0.009059188865040 ]
    mass: 118.710000
    reduced_to: 17
  - symbol: Sn # 20
    coordinates: [  0.727379826550642,  0.790024659208542,  0.009059188865040 ]
    mass: 118.710000
    reduced_to: 17
  - symbol: Sn # 21
    coordinates: [  0.227379826550642,  0.290024659208542,  0.509059188865040 ]
    mass: 118.710000
    reduced_to: 17
  - symbol: Sn # 22
    coordinates: [  0.727379826550642,  0.290024659208542,  0.509059188865040 ]
    mass: 118.710000
    reduced_to: 17
  - symbol: Sn # 23
    coordinates: [  0.227379826550642,  0.790024659208542,  0.509059188865040 ]
    mass: 118.710000
    reduced_to: 17
  - symbol: Sn # 24
    coordinates: [  0.727379826550642,  0.790024659208542,  0.509059188865040 ]
    mass: 118.710000
    reduced_to: 17
  - symbol: Sn # 25
    coordinates: [  0.477578808218944,  0.123856371323578,  0.009374002113534 ]
    mass: 118.710000
    reduced_to: 25
  - symbol: Sn # 26
    coordinates: [  0.977578808218944,  0.123856371323578,  0.009374002113534 ]
    mass: 118.710000
    reduced_to: 25
  - symbol: Sn # 27
    coordinates: [  0.477578808218944,  0.623856371323578,  0.009374002113534 ]
    mass: 118.710000
    reduced_to: 25
  - symbol: Sn # 28
    coordinates: [  0.977578808218944,  0.623856371323578,  0.009374002113534 ]
    mass: 118.710000
    reduced_to: 25
  - symbol: Sn # 29
    coordinates: [  0.477578808218944,  0.123856371323578,  0.509374002113534 ]
    mass: 118.710000
    reduced_to: 25
  - symbol: Sn # 30
    coordinates: [  0.977578808218944,  0.123856371323578,  0.509374002113534 ]
    mass: 118.710000
    reduced_to: 25
  - symbol: Sn # 31
    coordinates: [  0.477578808218944,  0.623856371323578,  0.509374002113534 ]
    mass: 118.710000
    reduced_to: 25
  - symbol: Sn # 32
    coordinates: [  0.977578808218944,  0.623856371323578,  0.509374002113534 ]
    mass: 118.710000
    reduced_to: 25
  - symbol: Sn # 33
    coordinates: [  0.227308310638365,  0.456719233857829,  0.342259602875614 ]
    mass: 118.710000
    reduced_to: 33
  - symbol: Sn # 34
    coordinates: [  0.727308310638365,  0.456719233857829,  0.342259602875614 ]
    mass: 118.710000
    reduced_to: 33
  - symbol: Sn # 35
    coordinates: [  0.227308310638365,  0.956719233857829,  0.342259602875614 ]
    mass: 118.710000
    reduced_to: 33
  - symbol: Sn # 36
    coordinates: [  0.727308310638365,  0.956719233857829,  0.342259602875614 ]
    mass: 118.710000
    reduced_to: 33
  - symbol: Sn # 37
    coordinates: [  0.227308310638365,  0.456719233857829,  0.842259602875614 ]
    mass: 118.710000
    reduced_to: 33
  - symbol: Sn # 38
    coordinates: [  0.727308310638365,  0.456719233857829,  0.842259602875614 ]
    mass: 118.710000
    reduced_to: 33
  - symbol: Sn # 39
    coordinates: [  0.227308310638365,  0.956719233857829,  0.842259602875614 ]
    mass: 118.710000
    reduced_to: 33
  - symbol: Sn # 40
    coordinates: [  0.727308310638365,  0.956719233857829,  0.842259602875614 ]
    mass: 118.710000
    reduced_to: 33
  - symbol: Sn # 41
    coordinates: [  0.477471633330548,  0.290700363482656,  0.342661084718572 ]
    mass: 118.710000
    reduced_to: 41
  - symbol: Sn # 42
    coordinates: [  0.977471633330548,  0.290700363482656,  0.342661084718572 ]
    mass: 118.710000
    reduced_to: 41
  - symbol: Sn # 43
    coordinates: [  0.477471633330548,  0.790700363482656,  0.342661084718572 ]
    mass: 118.710000
    reduced_to: 41
  - symbol: Sn # 44
    coordinates: [  0.977471633330548,  0.790700363482656,  0.342661084718572 ]
    mass: 118.710000
    reduced_to: 41
  - symbol: Sn # 45
    coordinates: [  0.477471633330548,  0.290700363482656,  0.842661084718572 ]
    mass: 118.710000
    reduced_to: 41
  - symbol: Sn # 46
    coordinates: [  0.977471633330548,  0.290700363482656,  0.842661084718572 ]
    mass: 118.710000
    reduced_to: 41
  - symbol: Sn # 47
    coordinates: [  0.477471633330548,  0.790700363482656,  0.842661084718572 ]
    mass: 118.710000
    reduced_to: 41
  - symbol: Sn # 48
    coordinates: [  0.977471633330548,  0.790700363482656,  0.842661084718572 ]
    mass: 118.710000
    reduced_to: 41

displacements:
- atom:    1
  displacement:
    [   0.0100000000000000,  0.0000000000000000,  0.0000000000000000 ]
  forces:
  - [  -0.0130108390003443,  0.0016740732826293, -0.0010945493122563 ]
  - [   0.0000764764845371,  0.0016855923458934, -0.0011046740692109 ]
  - [  -0.0015805321745574,  0.0016866466030478, -0.0011053369380534 ]
  - [  -0.0016947947442532,  0.0016860174946487, -0.0011048383312300 ]
  - [  -0.0015784837305546,  0.0016854587011039, -0.0011059502139688 ]
  - [  -0.0016953782178462,  0.0016850454267114, -0.0011055120266974 ]
  - [  -0.0015779121313244,  0.0016849206294864, -0.0011071914341301 ]
  - [  -0.0016963237430900,  0.0016854896675795, -0.0011068845633417 ]
  - [   0.0003280394012108, -0.0006767234299332,  0.0003933431580663 ]
  - [   0.0002513345098123, -0.0014143704902381,  0.0003931308165193 ]
  - [   0.0021026700269431, -0.0028465758077800,  0.0003946004435420 ]
  - [   0.0019890896510333,  0.0005452444311231,  0.0003902073949575 ]
  - [   0.0003561459598131, -0.0010988102294505,  0.0007177316583693 ]
  - [   0.0003576918388717, -0.0011034230701625,  0.0000710079912096 ]
  - [   0.0003555283765309, -0.0010988488793373,  0.0000698291696608 ]
  - [   0.0003579132608138, -0.0011032964102924,  0.0007159560918808 ]
  - [   0.0007085810648277,  0.0011156937107444,  0.0003248178400099 ]
  - [   0.0015058545395732,  0.0011236472055316,  0.0003233025781810 ]
  - [   0.0007054917514324,  0.0011269547976553,  0.0003238417848479 ]
  - [   0.0015059732832015,  0.0011225221678615,  0.0003192138101440 ]
  - [   0.0007019536569715,  0.0011214604601264,  0.0003167584072798 ]
  - [   0.0015037434641272,  0.0011199424043298,  0.0003228420391679 ]
  - [   0.0011632289970294,  0.0011218236759305,  0.0003215672913939 ]
  - [   0.0011090182233602,  0.0011216406710446,  0.0003212336450815 ]
  - [   0.0002748463011812,  0.0014052609913051, -0.0029199747368693 ]
  - [   0.0001854079018813, -0.0002804580144584, -0.0000325218388753 ]
  - [  -0.0014246983919293,  0.0002584932371974, -0.0016013974091038 ]
  - [  -0.0014236278366297,  0.0008212821558118, -0.0012821007985622 ]
  - [  -0.0014174473471940,  0.0003073341213167, -0.0010332481469959 ]
  - [  -0.0014652500394732,  0.0007422690978274, -0.0017910622991621 ]
  - [  -0.0014237849973142,  0.0008207354112528, -0.0012775370851159 ]
  - [  -0.0014229270163924,  0.0002645467175171, -0.0016065258532763 ]
  - [   0.0014585545286536,  0.0001496197655797,  0.0024875006638467 ]
  - [   0.0022591999731958,  0.0001569886808284,  0.0024885972961783 ]
  - [   0.0014589945785701,  0.0001593143679202,  0.0024882545694709 ]
  - [   0.0022592586465180,  0.0001539499498904,  0.0024931060615927 ]
  - [   0.0019172440515831,  0.0001541129313409,  0.0024903677403927 ]
  - [   0.0018612816929817,  0.0001538707874715,  0.0024903169833124 ]
  - [   0.0014584735035896,  0.0001535639166832,  0.0024970970116556 ]
  - [   0.0022566583938897,  0.0001504267565906,  0.0024891849607229 ]
  - [   0.0013858666643500, -0.0015479442663491,  0.0008123597945087 ]
  - [   0.0012880880385637, -0.0032131415791810, -0.0020515925716609 ]
  - [  -0.0002931682392955, -0.0026847813278437, -0.0004969194997102 ]
  - [  -0.0002919393591583, -0.0021226322278380, -0.0008172796806321 ]
  - [  -0.0002939123660326, -0.0021227500401437, -0.0008219407172874 ]
  - [  -0.0002922215498984, -0.0026800325140357, -0.0004937875783071 ]
  - [  -0.0002484288997948, -0.0026656372938305, -0.0011170047800988 ]
  - [  -0.0003109369426966, -0.0021845165174454, -0.0002783289237414 ]
- atom:    1
  displacement:
    [  -0.0100000000000000,  0.0000000000000000,  0.0000000000000000 ]
  forces:
  - [   0.0097404820844531,  0.0016876254230738, -0.0011218846775591 ]
  - [  -0.0033509498462081,  0.0016858563758433, -0.0011046826839447 ]
  - [  -0.0016918121837080,  0.0016859844326973, -0.0011052164481953 ]
  - [  -0.0015803040005267,  0.0016856510192156, -0.0011050325119868 ]
  - [  -0.0016937186010182,  0.0016859103925526, -0.0011060691904277 ]
  - [  -0.0015765703283250,  0.0016854202840477, -0.0011064007412642 ]
  - [  -0.0016946874093264,  0.0016849571838975, -0.0011066845618188 ]
  - [  -0.0015753107145429,  0.0016857220325619, -0.0011068594176322 ]
  - [   0.0004089933354408, -0.0014537125825882,  0.0003932425752282 ]
  - [   0.0003857610863633, -0.0007121058879420,  0.0003934977576137 ]
  - [  -0.0013364278711379,  0.0005737527972087,  0.0003907810896635 ]
  - [  -0.0013772434322163, -0.0028156351763755,  0.0003952942788601 ]
  - [   0.0003302244003862, -0.0011038482189178,  0.0000713812187314 ]
  - [   0.0003303482371848, -0.0010992879979312,  0.0007168299052864 ]
  - [   0.0003309235908091, -0.0011036130599678,  0.0007151779718697 ]
  - [   0.0003297664807178, -0.0010986453853548,  0.0000689658336341 ]
  - [   0.0015745842829347,  0.0011228956282139,  0.0003222508821636 ]
  - [   0.0007770381635055,  0.0011214993428439,  0.0003215302713215 ]
  - [   0.0015782974660397,  0.0011211219243705,  0.0003206417895854 ]
  - [   0.0007771453820169,  0.0011216138955206,  0.0003217604826204 ]
  - [   0.0015797176165506,  0.0011212979443371,  0.0003224874380976 ]
  - [   0.0007770698284730,  0.0011215428821743,  0.0003223207313567 ]
  - [   0.0011195975821465,  0.0011213063262403,  0.0003212522715330 ]
  - [   0.0011733293067664,  0.0011215377599001,  0.0003214047756046 ]
  - [  -0.0030732546001673, -0.0002853316254914, -0.0000240824483626 ]
  - [  -0.0031344774179161,  0.0013999175280333, -0.0029106298461556 ]
  - [  -0.0014512541238219,  0.0008217925205827, -0.0012818735558540 ]
  - [  -0.0014507031301036,  0.0002595521509647, -0.0016017898451537 ]
  - [  -0.0014099904801697,  0.0007432405254804, -0.0017930811736733 ]
  - [  -0.0014540946576744,  0.0003084368072450, -0.0010346809867769 ]
  - [  -0.0014499709941447,  0.0002647037035786, -0.0016064420342445 ]
  - [  -0.0014504423597828,  0.0008206738857552, -0.0012778344098479 ]
  - [   0.0023307537194341,  0.0001558765652589,  0.0024907479528338 ]
  - [   0.0015308848815039,  0.0001549168373458,  0.0024904848542064 ]
  - [   0.0023316708393395,  0.0001532100141048,  0.0024915728718042 ]
  - [   0.0015280931256711,  0.0001534461043775,  0.0024906438775361 ]
  - [   0.0018732408061624,  0.0001542400568724,  0.0024904650636017 ]
  - [   0.0019259867258370,  0.0001536449417472,  0.0024906222242862 ]
  - [   0.0023307991214097,  0.0001526917330921,  0.0024882212746888 ]
  - [   0.0015309653244913,  0.0001533473841846,  0.0024906629696488 ]
  - [  -0.0019241273403168, -0.0032225018367171, -0.0020673347171396 ]
  - [  -0.0019743270240724, -0.0015572579577565,  0.0007954427273944 ]
  - [  -0.0003192448057234, -0.0021216883324087, -0.0008174504619092 ]
  - [  -0.0003193868324161, -0.0026842467486858, -0.0004964797408320 ]
  - [  -0.0003191935829818, -0.0026791295967996, -0.0004940829239786 ]
  - [  -0.0003202133812010, -0.0021225712262094, -0.0008220841409639 ]
  - [  -0.0003222245723009, -0.0021700682118535, -0.0002530588244554 ]
  - [  -0.0003457474522293, -0.0026537510566413, -0.0010939522180706 ]
- atom:    1
  displacement:
    [  -0.0000003248114471,  0.0099999999947249,  0.0000000000000000 ]
  forces:
  - [  -0.0016403836198151, -0.0097649134695530, -0.0011516750091687 ]
  - [  -0.0016374480910599,  0.0012701558880508, -0.0011044170241803 ]
  - [  -0.0016359505243599,  0.0028517870232463, -0.0011056670919061 ]
  - [  -0.0016373954713345,  0.0016030520200729, -0.0011048873420805 ]
  - [  -0.0016361260786653,  0.0017106286250055, -0.0017663105390966 ]
  - [  -0.0016359761357307,  0.0016841264441609, -0.0010587356518954 ]
  - [  -0.0016363880131394,  0.0017067317385226, -0.0004468250554055 ]
  - [  -0.0016359827714041,  0.0016847973456606, -0.0011547130998224 ]
  - [   0.0007826823275536, -0.0008395485929213,  0.0003928290680051 ]
  - [  -0.0000588457623962, -0.0008899761014618,  0.0003925776109099 ]
  - [  -0.0013418670278043, -0.0006065731286071,  0.0003906404599547 ]
  - [   0.0019996953196824, -0.0006272730533965,  0.0003908369690180 ]
  - [   0.0003454832476564, -0.0011125290766358,  0.0004700983408839 ]
  - [   0.0003420848515816, -0.0011126971803606,  0.0004691325593740 ]
  - [   0.0003452921810094, -0.0011117495596409,  0.0003166277892888 ]
  - [   0.0003415243700147, -0.0011119036935270,  0.0003168997354805 ]
  - [   0.0011399157810956,  0.0032294106204063, -0.0010657026432455 ]
  - [   0.0011416121851653,  0.0012533420231193,  0.0003238953649998 ]
  - [   0.0011429972946644,  0.0031514093279839,  0.0019945809617639 ]
  - [   0.0011406745761633,  0.0012544118799269,  0.0004779571318068 ]
  - [   0.0011410134611651,  0.0005356711335480,  0.0004965346306562 ]
  - [   0.0011412198655307,  0.0011218185536563,  0.0004018177278340 ]
  - [   0.0011412415187806,  0.0014455220662057,  0.0003781802952290 ]
  - [   0.0011412547901273,  0.0010835165157914,  0.0003696964122355 ]
  - [  -0.0005884013953619,  0.0004228083416820, -0.0018031713552773 ]
  - [  -0.0022795884869993,  0.0004211589694023, -0.0017995983362198 ]
  - [  -0.0017178667476401,  0.0008611632511020, -0.0013274655211717 ]
  - [  -0.0011563699226826,  0.0008618608117104, -0.0013285514432937 ]
  - [  -0.0016445135697722,  0.0004198194947094, -0.0016470332629979 ]
  - [  -0.0012299370719120,  0.0004184871795587, -0.0016456318553537 ]
  - [  -0.0011585585307330,  0.0007302880985662, -0.0012519326992333 ]
  - [  -0.0017163585871458,  0.0007310843793675, -0.0012504260521382 ]
  - [   0.0018930759979412,  0.0022911573760211,  0.0038893935270607 ]
  - [   0.0018948158249259,  0.0002869360032491,  0.0024872424546629 ]
  - [   0.0018965755589306,  0.0022031683474779,  0.0008124393643811 ]
  - [   0.0018926723860204,  0.0002858536317945,  0.0023351847194135 ]
  - [   0.0018949476070702,  0.0004756893031299,  0.0024345093406737 ]
  - [   0.0018936111591756,  0.0001155296340585,  0.0024424293078482 ]
  - [   0.0018953101243824, -0.0004299557767808,  0.0023153505753726 ]
  - [   0.0018952353857458,  0.0001534563489258,  0.0024116565473378 ]
  - [   0.0005333377048373, -0.0025250203907490, -0.0002985324244946 ]
  - [  -0.0011359350755811, -0.0025275279767811, -0.0003051287203562 ]
  - [  -0.0005867257714272, -0.0020801811479032, -0.0007720126886852 ]
  - [  -0.0000244858674705, -0.0020800116471946, -0.0007714013918303 ]
  - [  -0.0000278097577393, -0.0022127171978354, -0.0008482026169077 ]
  - [  -0.0005857278592885, -0.0022122124210000, -0.0008490594336763 ]
  - [  -0.0005433550104499, -0.0025043135974556, -0.0004178140079603 ]
  - [  -0.0000842711888254, -0.0025157434865832, -0.0004356267745607 ]
- atom:    1
  displacement:
    [   0.0000003248114471, -0.0099999999947249,  0.0000000000000000 ]
  forces:
  - [  -0.0016282680444419,  0.0129808820784092, -0.0010647443123162 ]
  - [  -0.0016370653174818,  0.0021024029701948, -0.0011053541675210 ]
  - [  -0.0016362415626645,  0.0005198386497796, -0.0011049694148824 ]
  - [  -0.0016376595012844,  0.0017673177644610, -0.0011050095781684 ]
  - [  -0.0016358485445380,  0.0016602471005172, -0.0004459095653147 ]
  - [  -0.0016358271241188,  0.0016859979368746, -0.0011535920202732 ]
  - [  -0.0016363839386031,  0.0016625029966235, -0.0017663533799350 ]
  - [  -0.0016356708947569,  0.0016865096986294, -0.0010587538126856 ]
  - [   0.0000061285099946, -0.0012220198987052,  0.0003936495631933 ]
  - [   0.0006434733513743, -0.0011665250640363,  0.0003934493288398 ]
  - [   0.0020811427384615, -0.0016170043963939,  0.0003951098769903 ]
  - [  -0.0013615480856970, -0.0015952193643898,  0.0003950437530875 ]
  - [   0.0003398663830012, -0.0010904194787145,  0.0003171535208821 ]
  - [   0.0003470360534266, -0.0010901824571192,  0.0003164801746607 ]
  - [   0.0003405686875340, -0.0010911002755165,  0.0004705414175987 ]
  - [   0.0003466409980319, -0.0010907175019383,  0.0004701195284724 ]
  - [   0.0011432482860982, -0.0008927066810429,  0.0016475014854223 ]
  - [   0.0011412831954658,  0.0009894485119730,  0.0003214164171368 ]
  - [   0.0011405781842768, -0.0010056763421744, -0.0014228217769414 ]
  - [   0.0011428538709879,  0.0009901877492666,  0.0001649916812312 ]
  - [   0.0011402922682464,  0.0017061689868569,  0.0001443789806217 ]
  - [   0.0011399665381759,  0.0011217817664146,  0.0002410304732621 ]
  - [   0.0011415821500123,  0.0007975678890944,  0.0002706514205784 ]
  - [   0.0011411822633818,  0.0011596302501857,  0.0002734810113907 ]
  - [  -0.0022778052370995,  0.0006608208641410, -0.0010851618135348 ]
  - [  -0.0006029047654010,  0.0006621894426644, -0.0010888068936765 ]
  - [  -0.0011568143963814,  0.0002178130671382, -0.0015549823874608 ]
  - [  -0.0017187910852954,  0.0002178093418479, -0.0015546885551885 ]
  - [  -0.0012062693713233,  0.0006496258429252, -0.0012092727702111 ]
  - [  -0.0016663742717355,  0.0006508023943752, -0.0012098217848688 ]
  - [  -0.0017136990791187,  0.0003548390232027, -0.0016334510874003 ]
  - [  -0.0011587038170546,  0.0003537123557180, -0.0016349318902940 ]
  - [   0.0018964440096170, -0.0018862306606025,  0.0011546068126336 ]
  - [   0.0018952616956085,  0.0000228169956245,  0.0024915472604334 ]
  - [   0.0018940237350762, -0.0019932836294174,  0.0042403014376760 ]
  - [   0.0018948502838612,  0.0000219922512770,  0.0026465579867363 ]
  - [   0.0018952393438667, -0.0001673703081906,  0.0025400323793292 ]
  - [   0.0018935431726277,  0.0001919618807733,  0.0025382626336068 ]
  - [   0.0018941143061966,  0.0007358309812844,  0.0026697744615376 ]
  - [   0.0018925939220935,  0.0001525874249637,  0.0025703199207783 ]
  - [  -0.0011387718841434, -0.0022815661504865, -0.0010119059588760 ]
  - [   0.0005158088169992, -0.0022788168862462, -0.0010057307081297 ]
  - [  -0.0000244639813900, -0.0027273930609226, -0.0005430735182017 ]
  - [  -0.0005882312543690, -0.0027281073853374, -0.0005430101882666 ]
  - [  -0.0005835797637701, -0.0025895349681377, -0.0004666158347391 ]
  - [  -0.0000281012617052, -0.0025909887626767, -0.0004652345669456 ]
  - [  -0.0000481223687530, -0.0023141673300415, -0.0009247129200958 ]
  - [  -0.0005505769513547, -0.0023042594548315, -0.0009074991685338 ]
- atom:    1
  displacement:
    [   0.0000013428226346, -0.0050041134100138,  0.0086578777524603 ]
  forces:
  - [  -0.0016208002343774,  0.0073693152517080, -0.0111828930675983 ]
  - [  -0.0016367398202419,  0.0018939143046737, -0.0014623722527176 ]
  - [  -0.0016360799781978,  0.0011027348227799, -0.0014134750235826 ]
  - [  -0.0016376092098653,  0.0017268508672714, -0.0010829600505531 ]
  - [  -0.0016361051239073,  0.0011021427344531, -0.0000977771705948 ]
  - [  -0.0016355146653950,  0.0017271542456001, -0.0011787202674896 ]
  - [  -0.0016363549511880,  0.0022453996352851, -0.0007598241791129 ]
  - [  -0.0016357866115868,  0.0016448155511171, -0.0011323285289109 ]
  - [   0.0001628030586289, -0.0011791251599789,  0.0001842472702265 ]
  - [   0.0005069441394880, -0.0011521793203428,  0.0001829545944929 ]
  - [   0.0012069446966052, -0.0013575374614447,  0.0001046499237418 ]
  - [  -0.0005031388718635, -0.0013458253815770,  0.0001059751957655 ]
  - [   0.0006223783129826, -0.0010304898023605,  0.0006507812067866 ]
  - [   0.0000646569533274, -0.0010303305462003,  0.0006509842351079 ]
  - [   0.0000636434051557, -0.0011615254916251,  0.0007244488224387 ]
  - [   0.0006247363053262, -0.0011616088449955,  0.0007259920239449 ]
  - [   0.0011424263939261, -0.0013188063167036,  0.0012379363179207 ]
  - [   0.0011406023986638,  0.0009211935102940,  0.0003600183408707 ]
  - [   0.0011417847126722,  0.0012639211490750, -0.0002691876143217 ]
  - [   0.0011428836733103,  0.0010546282865107,  0.0002827848657034 ]
  - [   0.0011397494236007,  0.0012629427947104,  0.0029036926571280 ]
  - [   0.0011405656114221,  0.0010518990457058,  0.0004348433576524 ]
  - [   0.0011417325586081,  0.0009103296324611,  0.0005734250880778 ]
  - [   0.0011411809828132,  0.0010988009162247,  0.0002647931687534 ]
  - [  -0.0030888370238245,  0.0002965275198221, -0.0010278129484504 ]
  - [   0.0002018847590080,  0.0003002802841365, -0.0010344071779400 ]
  - [  -0.0014365587849170,  0.0004785074852407, -0.0014877548674121 ]
  - [  -0.0014383463421836,  0.0004795850254595, -0.0014878087677062 ]
  - [  -0.0009507239446975,  0.0003783244756050, -0.0011593864765018 ]
  - [  -0.0019211634062231,  0.0003797259414569, -0.0011615194380283 ]
  - [  -0.0014349609846249,  0.0006132952985354, -0.0014145586173981 ]
  - [  -0.0014389748685062,  0.0006122404010966, -0.0014152256771922 ]
  - [   0.0018949834629893,  0.0005900195101276,  0.0020700143650174 ]
  - [   0.0018965539056808,  0.0002233997220173,  0.0025296751409769 ]
  - [   0.0018938761204481, -0.0021374109201133,  0.0036418689414859 ]
  - [   0.0018938863649964,  0.0000897417776287,  0.0026070037856698 ]
  - [   0.0018953350372612,  0.0000429302453995,  0.0028005065396428 ]
  - [   0.0018936553969979,  0.0002145674079657,  0.0024822265841067 ]
  - [   0.0018967986106873,  0.0005898727104068,  0.0050811618566513 ]
  - [   0.0018925713375211,  0.0002217870205641,  0.0026837312616408 ]
  - [   0.0005241041071713, -0.0020304513163865, -0.0005908073508181 ]
  - [  -0.0011273287236691, -0.0020345565862954, -0.0005973679362796 ]
  - [  -0.0000266651622951, -0.0026627685874701, -0.0005892410408705 ]
  - [  -0.0005865297280252, -0.0026638726703823, -0.0005889682797715 ]
  - [  -0.0005869502201676, -0.0026608919724822, -0.0004393308190629 ]
  - [  -0.0000249678269029, -0.0026616952382028, -0.0004383853811305 ]
  - [  -0.0005438518710434, -0.0021443173754960, -0.0006269937148318 ]
  - [  -0.0000826972536743, -0.0021534608677030, -0.0006445933831856 ]
- atom:    1
  displacement:
    [  -0.0000013428226346,  0.0050041134100138, -0.0086578777524603 ]
  forces:
  - [  -0.0016487138345838, -0.0039355121552944,  0.0088463798165321 ]
  - [  -0.0016377205029130,  0.0014765919186175, -0.0007462446228601 ]
  - [  -0.0016357130371034,  0.0022700889967382, -0.0007978715002537 ]
  - [  -0.0016373572871089,  0.0016443347558379, -0.0011270777322352 ]
  - [  -0.0016362471506000,  0.0022701756097376, -0.0021150629036129 ]
  - [  -0.0016364078037441,  0.0016442763153464, -0.0010342288296670 ]
  - [  -0.0016362633323297,  0.0011254451237619, -0.0014540592674166 ]
  - [  -0.0016358384164050,  0.0017271242104471, -0.0010815346613526 ]
  - [   0.0005509969196282, -0.0009867114713416,  0.0006032651290298 ]
  - [   0.0001552460889798, -0.0010119692888111,  0.0006044134497643 ]
  - [  -0.0005102995201014, -0.0008474601781927,  0.0006774980574846 ]
  - [   0.0011827216949314, -0.0008582397131249,  0.0006761588156223 ]
  - [   0.0000655506810290, -0.0011731642298400,  0.0001372327096760 ]
  - [   0.0006222516531125, -0.0011734054423869,  0.0001359870657325 ]
  - [   0.0006241507362574, -0.0010397452861071,  0.0000595138408244 ]
  - [   0.0000616719698883, -0.0010394048877060,  0.0000581601634622 ]
  - [   0.0011404135730118,  0.0036703513469547, -0.0006419867277145 ]
  - [   0.0011423882097006,  0.0013218142557889,  0.0002845271956176 ]
  - [   0.0011420347727835,  0.0009836445096880,  0.0009127315133810 ]
  - [   0.0011406838893890,  0.0011904677376151,  0.0003613931476139 ]
  - [   0.0011416809866205,  0.0009866948239505, -0.0021433911751956 ]
  - [   0.0011401417432353,  0.0011900104582310,  0.0002089033368975 ]
  - [   0.0011411682935432,  0.0013274475932121,  0.0000663499813527 ]
  - [   0.0011412757448852,  0.0011439453810453,  0.0003779204562306 ]
  - [   0.0002639951417223,  0.0007995152845979, -0.0018746032146737 ]
  - [  -0.0031258678063750,  0.0007957769557834, -0.0018680164357647 ]
  - [  -0.0014400163199753,  0.0006037084385753, -0.0013943340163678 ]
  - [  -0.0014350240817294,  0.0006033126264811, -0.0013953108573332 ]
  - [  -0.0018279479118064,  0.0006404584855773, -0.0016113226301968 ]
  - [  -0.0010477369651198,  0.0006385253509507, -0.0016080562490970 ]
  - [  -0.0014395385514945,  0.0004708670312539, -0.0014705380890518 ]
  - [  -0.0014340789057314,  0.0004713566158898, -0.0014700281899422 ]
  - [   0.0018947185017169, -0.0002829798613675,  0.0029077371582389 ]
  - [   0.0018936640117317,  0.0000851749791764,  0.0024497178383172 ]