# Thermal properties / unit cell (natom)

unit:
  temperature:   K
  free_energy:   kJ/mol
  entropy:       J/K/mol
  heat_capacity: J/K/mol

natom: 10   
cutoff_frequency: 0.00000
num_modes: 151800
num_integrated_modes: 151798

zero_point_energy:      38.1937365

thermal_properties:
- temperature:         0.0000000
  free_energy:        38.1937365
  entropy:             0.0000000
  heat_capacity:       0.0000000
  energy:             38.1937365

- temperature:        10.0000000
  free_energy:        38.1918508
  entropy:             0.7401289
  heat_capacity:       2.3897175
  energy:             38.1992521

- temperature:        20.0000000
  free_energy:        38.1629085
  entropy:             5.9888217
  heat_capacity:      15.8187611
  energy:             38.2826849

- temperature:        30.0000000
  free_energy:        38.0574163
  entropy:            15.5910469
  heat_capacity:      32.4786844
  energy:             38.5251477

- temperature:        40.0000000
  free_energy:        37.8452412
  entropy:            27.0062116
  heat_capacity:      47.2865762
  energy:             38.9254897

- temperature:        50.0000000
  free_energy:        37.5153333
  entropy:            39.0358883
  heat_capacity:      60.9586131
  energy:             39.4671278

- temperature:        60.0000000
  free_energy:        37.0636159
  entropy:            51.3446690
  heat_capacity:      74.4919788
  energy:             40.1442961

- temperature:        70.0000000
  free_energy:        36.4877837
  entropy:            63.8507108
  heat_capacity:      88.1201186
  energy:             40.9573334

- temperature:        80.0000000
  free_energy:        35.7861155
  entropy:            76.5018671
  heat_capacity:     101.6150313
  energy:             41.9062648

- temperature:        90.0000000
  free_energy:        34.9574944
  entropy:            89.2281767
  heat_capacity:     114.6313113
  energy:             42.9880303

- temperature:       100.0000000
  free_energy:        34.0015753
  entropy:           101.9475460
  heat_capacity:     126.8831515
  energy:             44.1963299

- temperature:       110.0000000
  free_energy:        32.9188371
  entropy:           114.5792113
  heat_capacity:     138.1955377
  energy:             45.5225503

- temperature:       120.0000000
  free_energy:        31.7105196
  entropy:           127.0528109
  heat_capacity:     148.4952589
  energy:             46.9568569

- temperature:       130.0000000
  free_energy:        30.3784967
  entropy:           139.3121632
  heat_capacity:     157.7832103
  energy:             48.4890779

- temperature:       140.0000000
  free_energy:        28.9251311
  entropy:           151.3155209
  heat_capacity:     166.1068452
  energy:             50.1093040

- temperature:       150.0000000
  free_energy:        27.3531369
  entropy:           163.0340315
  heat_capacity:     173.5388753
  energy:             51.8082416

- temperature:       160.0000000
  free_energy:        25.6654614
  entropy:           174.4495381
  heat_capacity:     180.1627414
  energy:             53.5773875

- temperature:       170.0000000
  free_energy:        23.8651892
  entropy:           185.5523378
  heat_capacity:     186.0635332
  energy:             55.4090866

- temperature:       180.0000000
  free_energy:        21.9554684
  entropy:           196.3391777
  heat_capacity:     191.3227667
  energy:             57.2965203

- temperature:       190.0000000
  free_energy:        19.9394542
  entropy:           206.8115841
  heat_capacity:     196.0156986
  energy:             59.2336551

- temperature:       200.0000000
  free_energy:        17.8202685
  entropy:           216.9745264
  heat_capacity:     200.2102136
  energy:             61.2151738

- temperature:       210.0000000
  free_energy:        15.6009708
  entropy:           226.8353769
  heat_capacity:     203.9666411
  energy:             63.2363999

- temperature:       220.0000000
  free_energy:        13.2845381
  entropy:           236.4031179
  heat_capacity:     207.3380827
  energy:             65.2932240

- temperature:       230.0000000
  free_energy:        10.8738522
  entropy:           245.6877462
  heat_capacity:     210.3709950
  energy:             67.3820338

- temperature:       240.0000000
  free_energy:         8.3716917
  entropy:           254.6998308
  heat_capacity:     213.1058730
  energy:             69.4996511

- temperature:       250.0000000
  free_energy:         5.7807280
  entropy:           263.4501911
  heat_capacity:     215.5779468
  energy:             71.6432758

- temperature:       260.0000000
  free_energy:         3.1035241
  entropy:           271.9496631
  heat_capacity:     217.8178446
  energy:             73.8104365

- temperature:       270.0000000
  free_energy:         0.3425354
  entropy:           280.2089353
  heat_capacity:     219.8521978
  energy:             75.9989479

- temperature:       280.0000000
  free_energy:        -2.4998887
  entropy:           288.2384344
  heat_capacity:     221.7041815
  energy:             78.2068729

- temperature:       290.0000000
  free_energy:        -5.4215011
  entropy:           296.0482493
  heat_capacity:     223.3939884
  energy:             80.4324912

- temperature:       300.0000000
  free_energy:        -8.4201538
  entropy:           303.6480830
  heat_capacity:     224.9392410
  energy:             82.6742711

- temperature:       310.0000000
  free_energy:       -11.4937938
  entropy:           311.0472244
  heat_capacity:     226.3553468
  energy:             84.9308458

- temperature:       320.0000000
  free_energy:       -14.6404589
  entropy:           318.2545363
  heat_capacity:     227.6558035
  energy:             87.2009927

- temperature:       330.0000000
  free_energy:       -17.8582733
  entropy:           325.2784523
  heat_capacity:     228.8524611
  energy:             89.4836160

- temperature:       340.0000000
  free_energy:       -21.1454434
  entropy:           332.1269829
  heat_capacity:     229.9557453
  energy:             91.7777308

- temperature:       350.0000000
  free_energy:       -24.5002537
  entropy:           338.8077260
  heat_capacity:     230.9748494
  energy:             94.0824504

- temperature:       360.0000000
  free_energy:       -27.9210626
  entropy:           345.3278807
  heat_capacity:     231.9178979
  energy:             96.3969744

- temperature:       370.0000000
  free_energy:       -31.4062988
  entropy:           351.6942640
  heat_capacity:     232.7920868
  energy:             98.7205789

- temperature:       380.0000000
  free_energy:       -34.9544569
  entropy:           357.9133286
  heat_capacity:     233.6038036
  energy:            101.0526080

- temperature:       390.0000000
  free_energy:       -38.5640947
  entropy:           363.9911806
  heat_capacity:     234.3587310
  energy:            103.3924658

- temperature:       400.0000000
  free_energy:       -42.2338291
  entropy:           369.9335983
  heat_capacity:     235.0619352
  energy:            105.7396102

- temperature:       410.0000000
  free_energy:       -45.9623334
  entropy:           375.7460504
  heat_capacity:     235.7179424
  energy:            108.0935472

- temperature:       420.0000000
  free_energy:       -49.7483342
  entropy:           381.4337131
  heat_capacity:     236.3308048
  energy:            110.4538253

- temperature:       430.0000000
  free_energy:       -53.5906081
  entropy:           387.0014878
  heat_capacity:     236.9041572
  energy:            112.8200316

- temperature:       440.0000000
  free_energy:       -57.4879798
  entropy:           392.4540170
  heat_capacity:     237.4412671
  energy:            115.1917877

- temperature:       450.0000000
  free_energy:       -61.4393190
  entropy:           397.7957000
  heat_capacity:     237.9450769
  energy:            117.5687460

- temperature:       460.0000000
  free_energy:       -65.4435382
  entropy:           403.0307073
  heat_capacity:     238.4182412
  energy:            119.9505871

- temperature:       470.0000000
  free_energy:       -69.4995908
  entropy:           408.1629946
  heat_capacity:     238.8631598
  energy:            122.3370167

- temperature:       480.0000000
  free_energy:       -73.6064683
  entropy:           413.1963160
  heat_capacity:     239.2820054
  energy:            124.7277634

- temperature:       490.0000000
  free_energy:       -77.7631991
  entropy:           418.1342359
  heat_capacity:     239.6767490
  energy:            127.1225765

- temperature:       500.0000000
  free_energy:       -81.9688463
  entropy:           422.9801407
  heat_capacity:     240.0491813
  energy:            129.5212240

- temperature:       510.0000000
  free_energy:       -86.2225059
  entropy:           427.7372493
  heat_capacity:     240.4009319
  energy:            131.9234912

- temperature:       520.0000000
  free_energy:       -90.5233055
  entropy:           432.4086235
  heat_capacity:     240.7334862
  energy:            134.3291787

- temperature:       530.0000000
  free_energy:       -94.8704024
  entropy:           436.9971770
  heat_capacity:     241.0482003
  energy:            136.7381015

- temperature:       540.0000000
  free_energy:       -99.2629822
  entropy:           441.5056845
  heat_capacity:     241.3463139
  energy:            139.1500874

- temperature:       550.0000000
  free_energy:      -103.7002580
  entropy:           445.9367896
  heat_capacity:     241.6289621
  energy:            141.5649762

- temperature:       560.0000000
  free_energy:      -108.1814684
  entropy:           450.2930125
  heat_capacity:     241.8971856
  energy:            143.9826186

- temperature:       570.0000000
  free_energy:      -112.7058767
  entropy:           454.5767575
  heat_capacity:     242.1519401
  energy:            146.4028750

- temperature:       580.0000000
  free_energy:      -117.2727697
  entropy:           458.7903191
  heat_capacity:     242.3941039
  energy:            148.8256154

- temperature:       590.0000000
  free_energy:      -121.8814565
  entropy:           462.9358887
  heat_capacity:     242.6244860
  energy:            151.2507178

- temperature:       600.0000000
  free_energy:      -126.5312678
  entropy:           467.0155602
  heat_capacity:     242.8438316
  energy:            153.6780683

- temperature:       610.0000000
  free_energy:      -131.2215547
  entropy:           471.0313355
  heat_capacity:     243.0528287
  energy:            156.1075600

- temperature:       620.0000000
  free_energy:      -135.9516879
  entropy:           474.9851297
  heat_capacity:     243.2521128
  energy:            158.5390925

- temperature:       630.0000000
  free_energy:      -140.7210568
  entropy:           478.8787756
  heat_capacity:     243.4422719
  energy:            160.9725718

- temperature:       640.0000000
  free_energy:      -145.5290688
  entropy:           482.7140284
  heat_capacity:     243.6238505
  energy:            163.4079094

- temperature:       650.0000000
  free_energy:      -150.3751483
  entropy:           486.4925696
  heat_capacity:     243.7973532
  energy:            165.8450219

- temperature:       660.0000000
  free_energy:      -155.2587365
  entropy:           490.2160115
  heat_capacity:     243.9632487
  energy:            168.2838311

- temperature:       670.0000000
  free_energy:      -160.1792901
  entropy:           493.8859001
  heat_capacity:     244.1219721
  energy:            170.7242630

- temperature:       680.0000000
  free_energy:      -165.1362810
  entropy:           497.5037190
  heat_capacity:     244.2739281
  energy:            173.1662480

- temperature:       690.0000000
  free_energy:      -170.1291956
  entropy:           501.0708926
  heat_capacity:     244.4194937
  energy:            175.6097203

- temperature:       700.0000000
  free_energy:      -175.1575346
  entropy:           504.5887890
  heat_capacity:     244.5590198
  energy:            178.0546177

- temperature:       710.0000000
  free_energy:      -180.2208115
  entropy:           508.0587228
  heat_capacity:     244.6928340
  energy:            180.5008816

- temperature:       720.0000000
  free_energy:      -185.3185533
  entropy:           511.4819580
  heat_capacity:     244.8212419
  energy:            182.9484564

- temperature:       730.0000000
  free_energy:      -190.4502991
  entropy:           514.8597103
  heat_capacity:     244.9445293
  energy:            185.3972894

- temperature:       740.0000000
  free_energy:      -195.6155998
  entropy:           518.1931495
  heat_capacity:     245.0629633
  energy:            187.8473308

- temperature:       750.0000000
  free_energy:      -200.8140181
  entropy:           521.4834019
  heat_capacity:     245.1767939
  energy:            190.2985333

- temperature:       760.0000000
  free_energy:      -206.0451276
  entropy:           524.7315522
  heat_capacity:     245.2862553
  energy:            192.7508521

- temperature:       770.0000000
  free_energy:      -211.3085123
  entropy:           527.9386454
  heat_capacity:     245.3915672
  energy:            195.2042446

- temperature:       780.0000000
  free_energy:      -216.6037670
  entropy:           531.1056888
  heat_capacity:     245.4929356
  energy:            197.6586703

- temperature:       790.0000000
  free_energy:      -221.9304958
  entropy:           534.2336540
  heat_capacity:     245.5905541
  energy:            200.1140908

- temperature:       800.0000000
  free_energy:      -227.2883129
  entropy:           537.3234780
  heat_capacity:     245.6846043
  energy:            202.5704695

- temperature:       810.0000000
  free_energy:      -232.6768413
  entropy:           540.3760653
  heat_capacity:     245.7752574
  energy:            205.0277716

- temperature:       820.0000000
  free_energy:      -238.0957130
  entropy:           543.3922889
  heat_capacity:     245.8626742
  energy:            207.4859639

- temperature:       830.0000000
  free_energy:      -243.5445687
  entropy:           546.3729921
  heat_capacity:     245.9470062
  energy:            209.9450148

- temperature:       840.0000000
  free_energy:      -249.0230572
  entropy:           549.3189897
  heat_capacity:     246.0283964
  energy:            212.4048942

- temperature:       850.0000000
  free_energy:      -254.5308354
  entropy:           552.2310691
  heat_capacity:     246.1069793
  energy:            214.8655733

- temperature:       860.0000000
  free_energy:      -260.0675680
  entropy:           555.1099917
  heat_capacity:     246.1828820
  energy:            217.3270248

- temperature:       870.0000000
  free_energy:      -265.6329272
  entropy:           557.9564938
  heat_capacity:     246.2562247
  energy:            219.7892224

- temperature:       880.0000000
  free_energy:      -271.2265922
  entropy:           560.7712879
  heat_capacity:     246.3271206
  energy:            222.2521412

- temperature:       890.0000000
  free_energy:      -276.8482495
  entropy:           563.5550636
  heat_capacity:     246.3956769
  energy:            224.7157571

- temperature:       900.0000000
  free_energy:      -282.4975923
  entropy:           566.3084884
  heat_capacity:     246.4619952
  energy:            227.1800472

- temperature:       910.0000000
  free_energy:      -288.1743203
  entropy:           569.0322089
  heat_capacity:     246.5261714
  energy:            229.6449898

- temperature:       920.0000000
  free_energy:      -293.8781396
  entropy:           571.7268515
  heat_capacity:     246.5882964
  energy:            232.1105638

- temperature:       930.0000000
  free_energy:      -299.6087624
  entropy:           574.3930233
  heat_capacity:     246.6484564
  energy:            234.5767492

- temperature:       940.0000000
  free_energy:      -305.3659071
  entropy:           577.0313125
  heat_capacity:     246.7067332
  energy:            237.0435267

- temperature:       950.0000000
  free_energy:      -311.1492976
  entropy:           579.6422900
  heat_capacity:     246.7632042
  energy:            239.5108779

- temperature:       960.0000000
  free_energy:      -316.9586637
  entropy:           582.2265091
  heat_capacity:     246.8179431
  energy:            241.9787850

- temperature:       970.0000000
  free_energy:      -322.7937404
  entropy:           584.7845068
  heat_capacity:     246.8710198
  energy:            244.4472312

- temperature:       980.0000000
  free_energy:      -328.6542682
  entropy:           587.3168043
  heat_capacity:     246.9225006
  energy:            246.9162001

- temperature:       990.0000000
  free_energy:      -334.5399925
  entropy:           589.8239077
  heat_capacity:     246.9724487
  energy:            249.3856761

- temperature:      1000.0000000
  free_energy:      -340.4506640
  entropy:           592.3063081
  heat_capacity:     247.0209241
  energy:            251.8556441
