phonopy:
  version: "2.37.1"
  frequency_unit_conversion_factor: 15.633302
  symmetry_tolerance: 1.00000e-05

space_group:
  type: "P1"
  number: 1
  Hall_symbol: "P 1"

primitive_matrix:
- [  1.000000000000000, -0.000000000000000,  0.000000000000000 ]
- [  0.000000000000000,  1.000000000000000,  1.000000000000000 ]
- [  0.000000000000000,  0.000000000000000,  1.000000000000000 ]

supercell_matrix:
- [   3,   0,   0 ]
- [   0,   3,   0 ]
- [   0,   0,   2 ]

primitive_cell:
  lattice:
  - [     4.280050843370752,     0.000000000000000,     0.000000000000000 ] # a
  - [     0.000020725341740,     4.328341743058716,     0.000000000000000 ] # b
  - [     0.000110577277436,     2.164031229406796,     6.276103305265695 ] # c
  points:
  - symbol: Li # 1
    coordinates: [  0.512772700025703,  0.552317718507470,  0.932526546472653 ]
    mass: 6.940000
  - symbol: Li # 2
    coordinates: [  0.512707785182039,  0.896806371109150,  0.243603748870253 ]
    mass: 6.940000
  - symbol: Li # 3
    coordinates: [  0.512688154556870,  0.224540168625022,  0.588078686289754 ]
    mass: 6.940000
  - symbol: Li # 4
    coordinates: [  0.012860262458034,  0.724531771105450,  0.588022082570866 ]
    mass: 6.940000
  - symbol: Sn # 5
    coordinates: [  0.012718587135256,  0.062705350660456,  0.911788639996707 ]
    mass: 118.710000
  - symbol: Sn # 6
    coordinates: [  0.012705746751170,  0.386421426676777,  0.264337533941176 ]
    mass: 118.710000
  reciprocal_lattice: # without 2pi
  - [     0.233642084310487,    -0.000001118745314,    -0.000003730739384 ] # a*
  - [     0.000000000000000,     0.231035361661006,    -0.079662126866560 ] # b*
  - [     0.000000000000000,     0.000000000000000,     0.159334534720133 ] # c*

unit_cell:
  lattice:
  - [     4.280050843370752,     0.000000000000000,     0.000000000000000 ] # a
  - [     0.000020725341740,     4.328341743058716,     0.000000000000000 ] # b
  - [     0.000089851935696,    -2.164310513651920,     6.276103305265697 ] # c
  points:
  - symbol: Li # 1
    coordinates: [  0.512772700025703,  0.484844264980122,  0.932526546472653 ]
    mass: 6.940000
    reduced_to: 1
  - symbol: Li # 2
    coordinates: [  0.512707785182039,  0.140410119979402,  0.243603748870253 ]
    mass: 6.940000
    reduced_to: 2
  - symbol: Li # 3
    coordinates: [  0.512688154556870,  0.812618854914776,  0.588078686289754 ]
    mass: 6.940000
    reduced_to: 3
  - symbol: Li # 4
    coordinates: [  0.012860262458034,  0.312553853676316,  0.588022082570866 ]
    mass: 6.940000
    reduced_to: 4
  - symbol: Sn # 5
    coordinates: [  0.012718587135256,  0.974493990657163,  0.911788639996707 ]
    mass: 118.710000
    reduced_to: 5
  - symbol: Sn # 6
    coordinates: [  0.012705746751170,  0.650758960617954,  0.264337533941176 ]
    mass: 118.710000
    reduced_to: 6

supercell:
  lattice:
  - [    12.840152530112256,     0.000000000000000,     0.000000000000000 ] # a
  - [     0.000062176025220,    12.985025229176149,     0.000000000000000 ] # b
  - [     0.000179703871392,    -4.328621027303839,    12.552206610531394 ] # c
  points:
  - symbol: Li # 1
    coordinates: [  0.170924233341901,  0.161614754993374,  0.466263273236326 ]
    mass: 6.940000
    reduced_to: 1
  - symbol: Li # 2
    coordinates: [  0.504257566675234,  0.161614754993374,  0.466263273236326 ]
    mass: 6.940000
    reduced_to: 1
  - symbol: Li # 3
    coordinates: [  0.837590900008568,  0.161614754993374,  0.466263273236326 ]
    mass: 6.940000
    reduced_to: 1
  - symbol: Li # 4
    coordinates: [  0.170924233341901,  0.494948088326707,  0.466263273236326 ]
    mass: 6.940000
    reduced_to: 1
  - symbol: Li # 5
    coordinates: [  0.504257566675234,  0.494948088326707,  0.466263273236326 ]
    mass: 6.940000
    reduced_to: 1
  - symbol: Li # 6
    coordinates: [  0.837590900008568,  0.494948088326707,  0.466263273236326 ]
    mass: 6.940000
    reduced_to: 1
  - symbol: Li # 7
    coordinates: [  0.170924233341901,  0.828281421660041,  0.466263273236326 ]
    mass: 6.940000
    reduced_to: 1
  - symbol: Li # 8
    coordinates: [  0.504257566675234,  0.828281421660041,  0.466263273236326 ]
    mass: 6.940000
    reduced_to: 1
  - symbol: Li # 9
    coordinates: [  0.837590900008568,  0.828281421660041,  0.466263273236326 ]
    mass: 6.940000
    reduced_to: 1
  - symbol: Li # 10
    coordinates: [  0.170924233341901,  0.161614754993374,  0.966263273236326 ]
    mass: 6.940000
    reduced_to: 1
  - symbol: Li # 11
    coordinates: [  0.504257566675234,  0.161614754993374,  0.966263273236326 ]
    mass: 6.940000
    reduced_to: 1
  - symbol: Li # 12
    coordinates: [  0.837590900008568,  0.161614754993374,  0.966263273236326 ]
    mass: 6.940000
    reduced_to: 1
  - symbol: Li # 13
    coordinates: [  0.170924233341901,  0.494948088326707,  0.966263273236326 ]
    mass: 6.940000
    reduced_to: 1
  - symbol: Li # 14
    coordinates: [  0.504257566675234,  0.494948088326707,  0.966263273236326 ]
    mass: 6.940000
    reduced_to: 1
  - symbol: Li # 15
    coordinates: [  0.837590900008568,  0.494948088326707,  0.966263273236326 ]
    mass: 6.940000
    reduced_to: 1
  - symbol: Li # 16
    coordinates: [  0.170924233341901,  0.828281421660041,  0.966263273236326 ]
    mass: 6.940000
    reduced_to: 1
  - symbol: Li # 17
    coordinates: [  0.504257566675234,  0.828281421660041,  0.966263273236326 ]
    mass: 6.940000
    reduced_to: 1
  - symbol: Li # 18
    coordinates: [  0.837590900008568,  0.828281421660041,  0.966263273236326 ]
    mass: 6.940000
    reduced_to: 1
  - symbol: Li # 19
    coordinates: [  0.170902595060680,  0.046803373326467,  0.121801874435126 ]
    mass: 6.940000
    reduced_to: 19
  - symbol: Li # 20
    coordinates: [  0.504235928394013,  0.046803373326467,  0.121801874435126 ]
    mass: 6.940000
    reduced_to: 19
  - symbol: Li # 21
    coordinates: [  0.837569261727346,  0.046803373326467,  0.121801874435126 ]
    mass: 6.940000
    reduced_to: 19
  - symbol: Li # 22
    coordinates: [  0.170902595060680,  0.380136706659801,  0.121801874435126 ]
    mass: 6.940000
    reduced_to: 19
  - symbol: Li # 23
    coordinates: [  0.504235928394013,  0.380136706659801,  0.121801874435126 ]
    mass: 6.940000
    reduced_to: 19
  - symbol: Li # 24
    coordinates: [  0.837569261727346,  0.380136706659801,  0.121801874435126 ]
    mass: 6.940000
    reduced_to: 19
  - symbol: Li # 25
    coordinates: [  0.170902595060680,  0.713470039993134,  0.121801874435126 ]
    mass: 6.940000
    reduced_to: 19
  - symbol: Li # 26
    coordinates: [  0.504235928394013,  0.713470039993134,  0.121801874435126 ]
    mass: 6.940000
    reduced_to: 19
  - symbol: Li # 27
    coordinates: [  0.837569261727346,  0.713470039993134,  0.121801874435126 ]
    mass: 6.940000
    reduced_to: 19
  - symbol: Li # 28
    coordinates: [  0.170902595060680,  0.046803373326467,  0.621801874435126 ]
    mass: 6.940000
    reduced_to: 19
  - symbol: Li # 29
    coordinates: [  0.504235928394013,  0.046803373326467,  0.621801874435126 ]
    mass: 6.940000
    reduced_to: 19
  - symbol: Li # 30
    coordinates: [  0.837569261727346,  0.046803373326467,  0.621801874435126 ]
    mass: 6.940000
    reduced_to: 19
  - symbol: Li # 31
    coordinates: [  0.170902595060680,  0.380136706659801,  0.621801874435126 ]
    mass: 6.940000
    reduced_to: 19
  - symbol: Li # 32
    coordinates: [  0.504235928394013,  0.380136706659801,  0.621801874435126 ]
    mass: 6.940000
    reduced_to: 19
  - symbol: Li # 33
    coordinates: [  0.837569261727346,  0.380136706659801,  0.621801874435126 ]
    mass: 6.940000
    reduced_to: 19
  - symbol: Li # 34
    coordinates: [  0.170902595060680,  0.713470039993134,  0.621801874435126 ]
    mass: 6.940000
    reduced_to: 19
  - symbol: Li # 35
    coordinates: [  0.504235928394013,  0.713470039993134,  0.621801874435126 ]
    mass: 6.940000
    reduced_to: 19
  - symbol: Li # 36
    coordinates: [  0.837569261727346,  0.713470039993134,  0.621801874435126 ]
    mass: 6.940000
    reduced_to: 19
  - symbol: Li # 37
    coordinates: [  0.170896051518957,  0.270872951638259,  0.294039343144877 ]
    mass: 6.940000
    reduced_to: 37
  - symbol: Li # 38
    coordinates: [  0.504229384852290,  0.270872951638259,  0.294039343144877 ]
    mass: 6.940000
    reduced_to: 37
  - symbol: Li # 39
    coordinates: [  0.837562718185623,  0.270872951638259,  0.294039343144877 ]
    mass: 6.940000
    reduced_to: 37
  - symbol: Li # 40
    coordinates: [  0.170896051518957,  0.604206284971592,  0.294039343144877 ]
    mass: 6.940000
    reduced_to: 37
  - symbol: Li # 41
    coordinates: [  0.504229384852290,  0.604206284971592,  0.294039343144877 ]
    mass: 6.940000
    reduced_to: 37
  - symbol: Li # 42
    coordinates: [  0.837562718185623,  0.604206284971592,  0.294039343144877 ]
    mass: 6.940000
    reduced_to: 37
  - symbol: Li # 43
    coordinates: [  0.170896051518957,  0.937539618304925,  0.294039343144877 ]
    mass: 6.940000
    reduced_to: 37
  - symbol: Li # 44
    coordinates: [  0.504229384852290,  0.937539618304925,  0.294039343144877 ]
    mass: 6.940000
    reduced_to: 37
  - symbol: Li # 45
    coordinates: [  0.837562718185623,  0.937539618304925,  0.294039343144877 ]
    mass: 6.940000
    reduced_to: 37
  - symbol: Li # 46
    coordinates: [  0.170896051518957,  0.270872951638259,  0.794039343144877 ]
    mass: 6.940000
    reduced_to: 37
  - symbol: Li # 47
    coordinates: [  0.504229384852290,  0.270872951638259,  0.794039343144877 ]
    mass: 6.940000
    reduced_to: 37
  - symbol: Li # 48
    coordinates: [  0.837562718185623,  0.270872951638259,  0.794039343144877 ]
    mass: 6.940000
    reduced_to: 37
  - symbol: Li # 49
    coordinates: [  0.170896051518957,  0.604206284971592,  0.794039343144877 ]
    mass: 6.940000
    reduced_to: 37
  - symbol: Li # 50
    coordinates: [  0.504229384852290,  0.604206284971592,  0.794039343144877 ]
    mass: 6.940000
    reduced_to: 37
  - symbol: Li # 51
    coordinates: [  0.837562718185623,  0.604206284971592,  0.794039343144877 ]
    mass: 6.940000
    reduced_to: 37
  - symbol: Li # 52
    coordinates: [  0.170896051518957,  0.937539618304925,  0.794039343144877 ]
    mass: 6.940000
    reduced_to: 37
  - symbol: Li # 53
    coordinates: [  0.504229384852290,  0.937539618304925,  0.794039343144877 ]
    mass: 6.940000
    reduced_to: 37
  - symbol: Li # 54
    coordinates: [  0.837562718185623,  0.937539618304925,  0.794039343144877 ]
    mass: 6.940000
    reduced_to: 37
  - symbol: Li # 55
    coordinates: [  0.004286754152678,  0.104184617892105,  0.294011041285433 ]
    mass: 6.940000
    reduced_to: 55
  - symbol: Li # 56
    coordinates: [  0.337620087486011,  0.104184617892105,  0.294011041285433 ]
    mass: 6.940000
    reduced_to: 55
  - symbol: Li # 57
    coordinates: [  0.670953420819345,  0.104184617892105,  0.294011041285433 ]
    mass: 6.940000
    reduced_to: 55
  - symbol: Li # 58
    coordinates: [  0.004286754152678,  0.437517951225439,  0.294011041285433 ]
    mass: 6.940000
    reduced_to: 55
  - symbol: Li # 59
    coordinates: [  0.337620087486011,  0.437517951225439,  0.294011041285433 ]
    mass: 6.940000
    reduced_to: 55
  - symbol: Li # 60
    coordinates: [  0.670953420819345,  0.437517951225439,  0.294011041285433 ]
    mass: 6.940000
    reduced_to: 55
  - symbol: Li # 61
    coordinates: [  0.004286754152678,  0.770851284558772,  0.294011041285433 ]
    mass: 6.940000
    reduced_to: 55
  - symbol: Li # 62
    coordinates: [  0.337620087486011,  0.770851284558772,  0.294011041285433 ]
    mass: 6.940000
    reduced_to: 55
  - symbol: Li # 63
    coordinates: [  0.670953420819345,  0.770851284558772,  0.294011041285433 ]
    mass: 6.940000
    reduced_to: 55
  - symbol: Li # 64
    coordinates: [  0.004286754152678,  0.104184617892105,  0.794011041285433 ]
    mass: 6.940000
    reduced_to: 55
  - symbol: Li # 65
    coordinates: [  0.337620087486011,  0.104184617892105,  0.794011041285433 ]
    mass: 6.940000
    reduced_to: 55
  - symbol: Li # 66
    coordinates: [  0.670953420819345,  0.104184617892105,  0.794011041285433 ]
    mass: 6.940000
    reduced_to: 55
  - symbol: Li # 67
    coordinates: [  0.004286754152678,  0.437517951225439,  0.794011041285433 ]
    mass: 6.940000
    reduced_to: 55
  - symbol: Li # 68
    coordinates: [  0.337620087486011,  0.437517951225439,  0.794011041285433 ]
    mass: 6.940000
    reduced_to: 55
  - symbol: Li # 69
    coordinates: [  0.670953420819345,  0.437517951225439,  0.794011041285433 ]
    mass: 6.940000
    reduced_to: 55
  - symbol: Li # 70
    coordinates: [  0.004286754152678,  0.770851284558772,  0.794011041285433 ]
    mass: 6.940000
    reduced_to: 55
  - symbol: Li # 71
    coordinates: [  0.337620087486011,  0.770851284558772,  0.794011041285433 ]
    mass: 6.940000
    reduced_to: 55
  - symbol: Li # 72
    coordinates: [  0.670953420819345,  0.770851284558772,  0.794011041285433 ]
    mass: 6.940000
    reduced_to: 55
  - symbol: Sn # 73
    coordinates: [  0.004239529045085,  0.324831330219054,  0.455894319998353 ]
    mass: 118.710000
    reduced_to: 73
  - symbol: Sn # 74
    coordinates: [  0.337572862378419,  0.324831330219054,  0.455894319998353 ]
    mass: 118.710000
    reduced_to: 73
  - symbol: Sn # 75
    coordinates: [  0.670906195711752,  0.324831330219054,  0.455894319998353 ]
    mass: 118.710000
    reduced_to: 73
  - symbol: Sn # 76
    coordinates: [  0.004239529045085,  0.658164663552388,  0.455894319998353 ]
    mass: 118.710000
    reduced_to: 73
  - symbol: Sn # 77
    coordinates: [  0.337572862378419,  0.658164663552388,  0.455894319998353 ]
    mass: 118.710000
    reduced_to: 73
  - symbol: Sn # 78
    coordinates: [  0.670906195711752,  0.658164663552388,  0.455894319998353 ]
    mass: 118.710000
    reduced_to: 73
  - symbol: Sn # 79
    coordinates: [  0.004239529045085,  0.991497996885721,  0.455894319998353 ]
    mass: 118.710000
    reduced_to: 73
  - symbol: Sn # 80
    coordinates: [  0.337572862378419,  0.991497996885721,  0.455894319998353 ]
    mass: 118.710000
    reduced_to: 73
  - symbol: Sn # 81
    coordinates: [  0.670906195711752,  0.991497996885721,  0.455894319998353 ]
    mass: 118.710000
    reduced_to: 73
  - symbol: Sn # 82
    coordinates: [  0.004239529045085,  0.324831330219054,  0.955894319998353 ]
    mass: 118.710000
    reduced_to: 73
  - symbol: Sn # 83
    coordinates: [  0.337572862378419,  0.324831330219054,  0.955894319998353 ]
    mass: 118.710000
    reduced_to: 73
  - symbol: Sn # 84
    coordinates: [  0.670906195711752,  0.324831330219054,  0.955894319998353 ]
    mass: 118.710000
    reduced_to: 73
  - symbol: Sn # 85
    coordinates: [  0.004239529045085,  0.658164663552388,  0.955894319998353 ]
    mass: 118.710000
    reduced_to: 73
  - symbol: Sn # 86
    coordinates: [  0.337572862378419,  0.658164663552388,  0.955894319998353 ]
    mass: 118.710000
    reduced_to: 73
  - symbol: Sn # 87
    coordinates: [  0.670906195711752,  0.658164663552388,  0.955894319998353 ]
    mass: 118.710000
    reduced_to: 73
  - symbol: Sn # 88
    coordinates: [  0.004239529045085,  0.991497996885721,  0.955894319998353 ]
    mass: 118.710000
    reduced_to: 73
  - symbol: Sn # 89
    coordinates: [  0.337572862378419,  0.991497996885721,  0.955894319998353 ]
    mass: 118.710000
    reduced_to: 73
  - symbol: Sn # 90
    coordinates: [  0.670906195711752,  0.991497996885721,  0.955894319998353 ]
    mass: 118.710000
    reduced_to: 73
  - symbol: Sn # 91
    coordinates: [  0.004235248917057,  0.216919653539318,  0.132168766970588 ]
    mass: 118.710000
    reduced_to: 91
  - symbol: Sn # 92
    coordinates: [  0.337568582250390,  0.216919653539318,  0.132168766970588 ]
    mass: 118.710000
    reduced_to: 91
  - symbol: Sn # 93
    coordinates: [  0.670901915583723,  0.216919653539318,  0.132168766970588 ]
    mass: 118.710000
    reduced_to: 91
  - symbol: Sn # 94
    coordinates: [  0.004235248917057,  0.550252986872651,  0.132168766970588 ]
    mass: 118.710000
    reduced_to: 91
  - symbol: Sn # 95
    coordinates: [  0.337568582250390,  0.550252986872651,  0.132168766970588 ]
    mass: 118.710000
    reduced_to: 91
  - symbol: Sn # 96
    coordinates: [  0.670901915583723,  0.550252986872651,  0.132168766970588 ]
    mass: 118.710000
    reduced_to: 91
  - symbol: Sn # 97
    coordinates: [  0.004235248917057,  0.883586320205985,  0.132168766970588 ]
    mass: 118.710000
    reduced_to: 91
  - symbol: Sn # 98
    coordinates: [  0.337568582250390,  0.883586320205985,  0.132168766970588 ]
    mass: 118.710000
    reduced_to: 91
  - symbol: Sn # 99
    coordinates: [  0.670901915583723,  0.883586320205985,  0.132168766970588 ]
    mass: 118.710000
    reduced_to: 91
  - symbol: Sn # 100
    coordinates: [  0.004235248917057,  0.216919653539318,  0.632168766970588 ]
    mass: 118.710000
    reduced_to: 91
  - symbol: Sn # 101
    coordinates: [  0.337568582250390,  0.216919653539318,  0.632168766970588 ]
    mass: 118.710000
    reduced_to: 91
  - symbol: Sn # 102
    coordinates: [  0.670901915583723,  0.216919653539318,  0.632168766970588 ]
    mass: 118.710000
    reduced_to: 91
  - symbol: Sn # 103
    coordinates: [  0.004235248917057,  0.550252986872651,  0.632168766970588 ]
    mass: 118.710000
    reduced_to: 91
  - symbol: Sn # 104
    coordinates: [  0.337568582250390,  0.550252986872651,  0.632168766970588 ]
    mass: 118.710000
    reduced_to: 91
  - symbol: Sn # 105
    coordinates: [  0.670901915583723,  0.550252986872651,  0.632168766970588 ]
    mass: 118.710000
    reduced_to: 91
  - symbol: Sn # 106
    coordinates: [  0.004235248917057,  0.883586320205985,  0.632168766970588 ]
    mass: 118.710000
    reduced_to: 91
  - symbol: Sn # 107
    coordinates: [  0.337568582250390,  0.883586320205985,  0.632168766970588 ]
    mass: 118.710000
    reduced_to: 91
  - symbol: Sn # 108
    coordinates: [  0.670901915583723,  0.883586320205985,  0.632168766970588 ]
    mass: 118.710000
    reduced_to: 91

displacements:
- atom:    1
  displacement:
    [   0.0100000000000000,  0.0000000000000000,  0.0000000000000000 ]
  forces:
  - [  -0.0250403843820095,  0.0001337202556897,  0.0021090609952807 ]
  - [  -0.0005583632737398,  0.0001343537587672,  0.0022363811731339 ]
  - [  -0.0005412177415565,  0.0001340172311757,  0.0022154971957207 ]
  - [  -0.0005119368433952,  0.0001342743489658,  0.0022298563271761 ]
  - [  -0.0012636231258512, -0.0007222484564409,  0.0021609328687191 ]
  - [  -0.0012625074014068,  0.0009913160465658,  0.0022953096777201 ]
  - [  -0.0005112057551742,  0.0001347602810711,  0.0022278036922216 ]
  - [  -0.0012633372098207,  0.0009901281446218,  0.0021601459011436 ]
  - [  -0.0012623317306861, -0.0007228735485114,  0.0022952603176236 ]
  - [  -0.0004280293360353,  0.0001343050680589,  0.0022283373400569 ]
  - [  -0.0003934679552913,  0.0001341296592727,  0.0022269599139690 ]
  - [  -0.0003911506501026,  0.0001336552231805,  0.0022317115217447 ]
  - [  -0.0004165507853031,  0.0001352397666778,  0.0022283471189439 ]
  - [  -0.0003988146781921,  0.0001350446545985,  0.0022316360846162 ]
  - [  -0.0003980249166489,  0.0001323351898463,  0.0022239824756980 ]
  - [  -0.0004163552075624,  0.0001348000805592,  0.0022298349067569 ]
  - [  -0.0003998382017016,  0.0001323119504377,  0.0022196788340807 ]
  - [  -0.0004005901573692,  0.0001363212650176,  0.0022397181019187 ]
  - [   0.0003378000110388, -0.0002435129135847, -0.0024543697945774 ]
  - [   0.0001909686252475, -0.0002441718243062, -0.0023737992160022 ]
  - [   0.0001922491355799, -0.0002423990517855, -0.0025328001938760 ]
  - [   0.0002692760899663, -0.0002426393330097, -0.0024527367204428 ]
  - [   0.0003131879493594, -0.0002419152297080, -0.0024567185901105 ]
  - [   0.0003133416175842, -0.0002451175823808, -0.0024450207129121 ]
  - [   0.0002747671678662, -0.0002439147792757, -0.0024521923623979 ]
  - [   0.0003098910674453, -0.0002440358512104, -0.0024542361497879 ]
  - [   0.0003098925226368, -0.0002417587675154, -0.0024503613822162 ]
  - [   0.0002984339371324, -0.0002363986714045, -0.0024567861109972 ]
  - [   0.0000116871669888, -0.0001963997492567, -0.0025804513134062 ]
  - [   0.0000126359445858, -0.0002905602159444, -0.0023207562044263 ]
  - [   0.0002997340634465, -0.0002487120218575, -0.0024579465389252 ]
  - [   0.0000113295391202, -0.0002897237427533, -0.0025808969512582 ]
  - [   0.0000123718054965, -0.0001950357109308, -0.0023194793611765 ]
  - [   0.0002686567604542, -0.0002428186126053, -0.0024504270404577 ]
  - [   0.0003246162086725, -0.0002432200126350, -0.0024673002772033 ]
  - [   0.0003252005553804, -0.0002432814799249, -0.0024325866252184 ]
  - [   0.0006586052477360, -0.0000281602988252, -0.0002229716628790 ]
  - [   0.0006345156580210,  0.0001339379232377, -0.0000660680234432 ]
  - [   0.0006367043824866, -0.0001816500152927, -0.0003940239548683 ]
  - [   0.0006618537008762, -0.0000205022697628, -0.0002328548580408 ]
  - [   0.0006341477856040, -0.0000244809052674, -0.0002173986285925 ]
  - [   0.0006370777264237, -0.0000254791993939, -0.0002471301704645 ]
  - [   0.0006601959466934, -0.0000168987826328, -0.0002267099916935 ]
  - [   0.0006385426968336, -0.0001809854875319, -0.0000692792236805 ]
  - [   0.0006391997449100,  0.0001354703126708, -0.0003970209509134 ]
  - [   0.0007107993587852, -0.0000226800075325, -0.0002294611185789 ]
  - [  -0.0001249080523849, -0.0000259901789832, -0.0009770579636097 ]
  - [  -0.0001386056246702, -0.0000225137482630,  0.0005282722413540 ]
  - [   0.0006081545725465, -0.0000204022780963, -0.0002290103584528 ]
  - [   0.0006463499739766, -0.0000180457373062, -0.0002323985099792 ]
  - [   0.0006475186673924, -0.0000299890161841, -0.0002332199364901 ]
  - [   0.0006165197119117, -0.0000259842672676, -0.0002343691885471 ]
  - [   0.0006429580971599, -0.0000297212354781, -0.0002278424799442 ]
  - [   0.0006448185304180, -0.0000194891144929, -0.0002356451004744 ]
  - [   0.0006766790756956,  0.0003405427269172,  0.0018836455419660 ]
  - [   0.0006877173436806,  0.0003404711023904, -0.0010725627653301 ]
  - [  -0.0009230024297722,  0.0003400105051696,  0.0004115742049180 ]
  - [  -0.0007853526622057, -0.0000261444947682,  0.0005605462938547 ]
  - [  -0.0007878177566454,  0.0007107537239790,  0.0002609603106976 ]
  - [  -0.0009540405008011,  0.0003447733470239,  0.0004134830087423 ]
  - [  -0.0007910351851024,  0.0007092538871802,  0.0005641765892506 ]
  - [  -0.0007859321776778, -0.0000303115521092,  0.0002569090574980 ]
  - [  -0.0009524796041660,  0.0003407873155084,  0.0004116203635931 ]
  - [  -0.0007837373996153,  0.0003990888362750,  0.0001799389719963 ]
  - [  -0.0007847399683669,  0.0002902348060161,  0.0006356500089169 ]
  - [  -0.0009472379460931,  0.0003413747472223,  0.0004084166139364 ]
  - [  -0.0007795928977430,  0.0002827709540725,  0.0001803748309612 ]
  - [  -0.0007839058525860,  0.0003910353407264,  0.0006332602351904 ]
  - [  -0.0009484168840572,  0.0003410885110497,  0.0004100943042431 ]
  - [  -0.0009527557995170,  0.0003402363508940,  0.0003424677997828 ]
  - [  -0.0009503785404377,  0.0003403341397643,  0.0004771844833158 ]
  - [  -0.0009557951125316,  0.0003431625664234,  0.0004063820815645 ]
  - [   0.0038812197744846, -0.0034868055954576, -0.0255195330828428 ]
  - [   0.0039651114493608,  0.0030451957136393, -0.0260137319564819 ]
  - [   0.0003452518722042, -0.0002788947895169, -0.0257585495710373 ]
  - [   0.0001195944350911, -0.0002818070352077, -0.0258191302418709 ]
  - [   0.0001202592902700, -0.0002817623317242, -0.0256956815719604 ]
  - [   0.0002921645645984, -0.0002812240272760, -0.0257560275495052 ]
  - [   0.0038803941570222,  0.0029300088062882, -0.0255195014178753 ]
  - [   0.0039649996906519, -0.0036051487550139, -0.0260132737457752 ]
  - [   0.0003447702911217, -0.0002792151644826, -0.0257583186030388 ]
  - [   0.0001397087471560, -0.0002414566988591, -0.0258318614214659 ]
  - [   0.0001404704089509, -0.0003144215443172, -0.0256809014827013 ]
  - [   0.0002479953982402, -0.0002782716182992, -0.0257546920329332 ]
  - [   0.0001755356061039, -0.0003182412474416, -0.0257868226617575 ]
  - [   0.0001758279686328, -0.0002390748268226, -0.0257210396230221 ]
  - [   0.0001781492028385, -0.0002784457174130, -0.0257530063390732 ]
  - [   0.0001760355517035, -0.0002756165049504, -0.0258034225553274 ]
  - [   0.0001769117807271, -0.0002819827059284, -0.0257031843066216 ]
  - [   0.0001771805691533, -0.0002788294223137, -0.0257542934268713 ]
  - [   0.0003108224482276,  0.0001093856990337,  0.0259907450526953 ]
  - [   0.0003128768876195,  0.0000293925404549,  0.0256082434207201 ]
  - [   0.0002315464807907,  0.0000703930854797,  0.0257981717586517 ]
  - [   0.0002306509559276,  0.0000641420483589,  0.0258195176720619 ]
  - [   0.0002321984793525,  0.0000765826553106,  0.0257774870842695 ]
  - [   0.0002272708370583,  0.0000710617750883,  0.0257990006357431 ]
  - [   0.0003155879676342,  0.0000375490635633,  0.0259947888553143 ]
  - [   0.0003147162497044,  0.0001044720411301,  0.0256042294204235 ]
  - [   0.0002343486994505,  0.0000701770186424,  0.0257982127368450 ]
  - [   0.0056156641803682,  0.0000701136887074,  0.0206492953002453 ]
  - [   0.0057248272933066,  0.0000700931996107,  0.0311264991760254 ]
  - [   0.0003828305343632,  0.0000702589750290,  0.0258032511919737 ]
  - [   0.0002634660049807,  0.0002239830791950,  0.0259990021586418 ]
  - [   0.0002630284870975, -0.0000856369733810,  0.0255998522043228 ]
  - [   0.0002701926860027,  0.0000719409435987,  0.0257993396371603 ]
  - [   0.0002637812285684, -0.0000823624432087,  0.0260000675916672 ]
  - [   0.0002641249448061,  0.0002280166518176,  0.0256018750369549 ]
  - [   0.0002695024013519,  0.0000704877675162,  0.0258018299937248 ]
- atom:    1
  displacement:
    [  -0.0100000000000000,  0.0000000000000000,  0.0000000000000000 ]
  forces:
  - [   0.0242301076650620,  0.0001326148631051,  0.0021273773163557 ]
  - [  -0.0002668760716915,  0.0001344124611933,  0.0022152373567224 ]
  - [  -0.0002495197695680,  0.0001341522438452,  0.0022363485768437 ]
  - [  -0.0002997368574142,  0.0001340011222055,  0.0022297231480479 ]
  - [   0.0004534581676126,  0.0009900992736220,  0.0022958302870393 ]
  - [   0.0004544827970676, -0.0007213797653094,  0.0021603573113680 ]
  - [  -0.0002991659566760,  0.0001352432736894,  0.0022277254611254 ]
  - [   0.0004535848274827, -0.0007220822153613,  0.0022950768470764 ]
  - [   0.0004546095442493,  0.0009898166172206,  0.0021604765206575 ]
  - [  -0.0003807386383414,  0.0001341541938018,  0.0022284067235887 ]
  - [  -0.0004172250628471,  0.0001343322946923,  0.0022321571595967 ]
  - [  -0.0004147229483351,  0.0001335857668892,  0.0022264737635851 ]
  - [  -0.0003949766978621,  0.0001352627004962,  0.0022284123115242 ]
  - [  -0.0004094056785107,  0.0001322115567746,  0.0022240672260523 ]
  - [  -0.0004087276756763,  0.0001352717808913,  0.0022315327078104 ]
  - [  -0.0003948165103793,  0.0001347593351966,  0.0022298377007246 ]
  - [  -0.0004106583073735,  0.0001350734091830,  0.0022407369688153 ]
  - [  -0.0004115094197914,  0.0001335537526757,  0.0022185677662492 ]
  - [   0.0002793781459332, -0.0002435916103423, -0.0024543544277549 ]
  - [   0.0004251450300217, -0.0002437373623252, -0.0025319508276880 ]
  - [   0.0004264873568900, -0.0002427222207189, -0.0023747012019157 ]
  - [   0.0003461148589849, -0.0002426067367196, -0.0024526426568627 ]
  - [   0.0003030728548765, -0.0002447776496410, -0.0024472884833813 ]
  - [   0.0003032426466234, -0.0002422221004963, -0.0024546612985432 ]
  - [   0.0003391616046429, -0.0002438682131469, -0.0024521015584469 ]
  - [   0.0003061173483729, -0.0002415319904685, -0.0024504689499736 ]
  - [   0.0003060344024561, -0.0002444372512400, -0.0024539493024349 ]
  - [   0.0003143800422549, -0.0002370589791099, -0.0024558347649872 ]
  - [   0.0006030984222889, -0.0002908000315074, -0.0023201121948659 ]
  - [   0.0006037997663952, -0.0001960239605978, -0.0025810548104346 ]
  - [   0.0003146212548018, -0.0002480074763298, -0.0024572149850428 ]
  - [   0.0006025936454535, -0.0001954543404281, -0.0023204861208797 ]
  - [   0.0006038654828444, -0.0002894802019000, -0.0025799567811191 ]
  - [   0.0003434671089053, -0.0002428158186376, -0.0024503208696842 ]
  - [   0.0002872673794627, -0.0002429569140077, -0.0024328525178134 ]
  - [   0.0002877277438529, -0.0002434006892145, -0.0024670469574630 ]
  - [   0.0006256159394979, -0.0000275430793408, -0.0002241414040327 ]
  - [   0.0006478792056441, -0.0001825054641813, -0.0003934539854527 ]
  - [   0.0006499647861347,  0.0001346669305349, -0.0000670365989208 ]
  - [   0.0006272289901972, -0.0000204531406780, -0.0002328101545572 ]
  - [   0.0006515532732010, -0.0000247639400186, -0.0002456698566675 ]
  - [   0.0006544081843458, -0.0000251218971243, -0.0002188459038734 ]
  - [   0.0006312243640423, -0.0000175500190380, -0.0002279281616211 ]
  - [   0.0006501274183393,  0.0001356868451694, -0.0003980435431004 ]
  - [   0.0006507184007205, -0.0001812854898162, -0.0000685546547174 ]
  - [   0.0005689077079296, -0.0000226682095672, -0.0002305079251528 ]
  - [   0.0014206413179636, -0.0000265201178991,  0.0005243215709925 ]
  - [   0.0014092538040131, -0.0000221494537982, -0.0009756255894899 ]
  - [   0.0006750524044037, -0.0000203637409868, -0.0002291686832905 ]
  - [   0.0006420463323593, -0.0000273487239610, -0.0002333857119083 ]
  - [   0.0006431773654185, -0.0000205970936804, -0.0002321861684322 ]
  - [   0.0006775669753551, -0.0000259644057223, -0.0002346709370613 ]
  - [   0.0006414400413632, -0.0000201453240152, -0.0002339296042919 ]
  - [   0.0006432603113353, -0.0000290205134661, -0.0002296753227711 ]
  - [  -0.0026069316081703,  0.0003408203483559, -0.0010760556906462 ]
  - [  -0.0025912486016750,  0.0003401888243388,  0.0018820057157427 ]