# Tetrahedron method
       -1.2638043507        0.0000000000
       -1.1879760972        0.0000000000
       -1.1121478437        0.0000000000
       -1.0363195902        0.0000000000
       -0.9604913368        0.0000000000
       -0.8846630833        0.0000000000
       -0.8088348298        0.0000000000
       -0.7330065764        0.0000000000
       -0.6571783229        0.0000000000
       -0.5813500694        0.0000000000
       -0.5055218160        0.0000000000
       -0.4296935625        0.0000000000
       -0.3538653090        0.0000000000
       -0.2780370555        0.0000000000
       -0.2022088021        0.0000000000
       -0.1263805486        0.0000000000
       -0.0505522951        0.0000000000
        0.0252759583        0.0000346947
        0.1011042118        0.0005551159
        0.1769324653        0.0017000431
        0.2527607187        0.0045109183
        0.3285889722        0.0079284272
        0.4044172257        0.0123463769
        0.4802454791        0.0195939857
        0.5560737326        0.0266399623
        0.6319019861        0.0344731555
        0.7077302396        0.0443258740
        0.7835584930        0.0543963431
        0.8593867465        0.0659301793
        0.9352150000        0.0792975085
        1.0110432534        0.0935578953
        1.0868715069        0.1100653825
        1.1626997604        0.1294014375
        1.2385280138        0.1493688768
        1.3143562673        0.1730647976
        1.3901845208        0.2016247794
        1.4660127743        0.2334730882
        1.5418410277        0.2718226286
        1.6176692812        0.3143262362
        1.6934975347        0.3665021658
        1.7693257881        0.4314027149
        1.8451540416        0.5302485057
        1.9209822951        0.5881461012
        1.9968105485        0.6662792688
        2.0726388020        0.7636796050
        2.1484670555        0.9066108892
        2.2242953090        1.1478073997
        2.3001235624        2.4886000557
        2.3759518159        3.2281802648
        2.4517800694        2.8973484266
        2.5276083228        2.3359417576
        2.6034365763        2.5618844906
        2.6792648298        2.4010730953
        2.7550930832        1.6567418228
        2.8309213367        1.5907537454
        2.9067495902        1.6358683368
        2.9825778437        1.6798546659
        3.0584060971        1.0436347133
        3.1342343506        0.7491715423
        3.2100626041        0.4644022250
        3.2858908575        0.3013835048
        3.3617191110        0.3198916209
        3.4375473645        0.3580104485
        3.5133756179        0.3170029120
        3.5892038714        0.3009836984
        3.6650321249        0.3020947584
        3.7408603784        0.3111928668
        3.8166886318        0.3297464056
        3.8925168853        0.3593880382
        3.9683451388        0.3603325130
        4.0441733922        0.3722826639
        4.1200016457        0.3768459718
        4.1958298992        0.3788540008
        4.2716581526        0.3830187702
        4.3474864061        0.3952639128
        4.4233146596        0.4000158901
        4.4991429131        0.4043219688
        4.5749711665        0.4212425901
        4.6507994200        0.4274062236
        4.7266276735        0.4293640617
        4.8024559269        0.4510424554
        4.8782841804        0.4637918067
        4.9541124339        0.4699133204
        5.0299406873        0.5132074864
        5.1057689408        0.6125881678
        5.1815971943        0.8885355586
        5.2574254478        1.1606911961
        5.3332537012        1.1155752743
        5.4090819547        1.2847121849
        5.4849102082        2.5074909667
        5.5607384616        2.4535459019
        5.6365667151        2.3799859508
        5.7123949686        1.7579609786
        5.7882232220        1.4223057392
        5.8640514755        0.9413191667
        5.9398797290        0.7770902172
        6.0157079825        0.6643747060
        6.0915362359        0.6091260028
        6.1673644894        0.5954425357
        6.2431927429        0.5964892275
        6.3190209963        0.5448394254
        6.3948492498        0.5631584809
        6.4706775033        0.5064333076
        6.5465057567        0.5259595000
        6.6223340102        0.5311562777
        6.6981622637        0.4678137742
        6.7739905172        0.4704268431
        6.8498187706        0.5643801881
        6.9256470241        0.9247016915
        7.0014752776        0.6495777495
        7.0773035310        0.6753524751
        7.1531317845        0.7383463434
        7.2289600380        1.0061340923
        7.3047882914        1.0717174272
        7.3806165449        0.9535398179
        7.4564447984        0.8239540916
        7.5322730518        0.7769211030
        7.6081013053        0.7419594047
        7.6839295588        0.7310670364
        7.7597578123        0.7985396465
        7.8355860657        0.7189228722
        7.9114143192        0.5850366686
        7.9872425727        0.5312493998
        8.0630708261        0.4461788152
        8.1388990796        0.3929528475
        8.2147273331        0.3596476189
        8.2905555865        0.3168018733
        8.3663838400        0.2923835007
        8.4422120935        0.2888036021
        8.5180403470        0.2925111690
        8.5938686004        0.2972674569
        8.6696968539        0.2936385572
        8.7455251074        0.2973993444
        8.8213533608        0.2869054341
        8.8971816143        0.2865000767
        8.9730098678        0.2862312146
        9.0488381212        0.2953070012
        9.1246663747        0.3104069247
        9.2004946282        0.3207525157
        9.2763228817        0.3355207464
        9.3521511351        0.3570266064
        9.4279793886        0.3760839564
        9.5038076421        0.4000699873
        9.5796358955        0.4311219178
        9.6554641490        0.4498085427
        9.7312924025        0.4687629220
        9.8071206559        0.4942883689
        9.8829489094        0.5270607314
        9.9587771629        0.5660947145
       10.0346054164        0.6126508726
       10.1104336698        0.6552442945
       10.1862619233        0.7299175028
       10.2620901768        0.8028051240
       10.3379184302        0.9618014240
       10.4137466837        1.0336781167
       10.4895749372        0.8641512189
       10.5654031906        0.8118720370
       10.6412314441        0.7851955423
       10.7170596976        0.7664335299
       10.7928879511        0.7496610007
       10.8687162045        0.7322463711
       10.9445444580        0.7331361698
       11.0203727115        0.7474639195
       11.0962009649        0.7601429926
       11.1720292184        0.7632204587
       11.2478574719        0.7899633062
       11.3236857253        0.8346838266
       11.3995139788        0.9135084242
       11.4753422323        1.1420891656
       11.5511704858        1.1311755840
       11.6269987392        1.8828734105
       11.7028269927        1.6471513174
       11.7786552462        1.4124588148
       11.8544834996        1.4948063534
       11.9303117531        1.4423442132
       12.0061400066        1.3460557366
       12.0819682600        1.0925786155
       12.1577965135        1.2026612948
       12.2336247670        1.4800944470
       12.3094530205        0.9766881958
       12.3852812739        0.2632217127
       12.4611095274        0.1782661809
       12.5369377809        0.1164543548
       12.6127660343        0.0517108636
       12.6885942878        0.0000000000
       12.7644225413        0.0000000000
       12.8402507947        0.0000000000
       12.9160790482        0.0000000000
       12.9919073017        0.0000000000
       13.0677355552        0.0000000000
       13.1435638086        0.0000000000
       13.2193920621        0.0000000000
       13.2952203156        0.0000000000
       13.3710485690        0.0000000000
       13.4468768225        0.0000000000
       13.5227050760        0.0000000000
       13.5985333294        0.0000000000
       13.6743615829        0.0000000000
       13.7501898364        0.0000000000
       13.8260180899        0.0000000000
       13.9018463433        0.0000000000
