phonopy:
  version: "2.37.1"
  frequency_unit_conversion_factor: 15.633302
  symmetry_tolerance: 1.00000e-05

space_group:
  type: "Fd-3m"
  number: 227
  Hall_symbol: "F 4d 2 3 -1d"

primitive_matrix:
- [ -0.000000000000000,  1.000000000000000, -0.000000000000000 ]
- [  0.000000000000000,  0.000000000000000,  1.000000000000000 ]
- [  1.000000000000000,  0.000000000000000,  0.000000000000000 ]

supercell_matrix:
- [   3,   0,   0 ]
- [   0,   3,   0 ]
- [   0,   0,   3 ]

primitive_cell:
  lattice:
  - [     2.395182193074869,     1.382859449024030,     3.911315246160981 ] # a
  - [     4.790364442329055,     0.000000000000000,     0.000000000000000 ] # b
  - [     2.395182227981498,     4.148576118586697,     0.000000000000000 ] # c
  points:
  - symbol: Sn # 1
    coordinates: [  0.750000016373426,  0.749999981497687,  0.750000024867341 ]
    mass: 118.710000
  - symbol: Sn # 2
    coordinates: [  0.499999983616316,  0.500000018514836,  0.499999975128031 ]
    mass: 118.710000
  reciprocal_lattice: # without 2pi
  - [     0.000000000000000,     0.000000000000000,     0.255668473918464 ] # a*
  - [     0.208752384508308,    -0.120523280067812,    -0.085222800129508 ] # b*
  - [     0.000000000000000,     0.241046559449576,    -0.085222870418525 ] # c*

unit_cell:
  lattice:
  - [     4.790364442329055,     0.000000000000000,     0.000000000000000 ] # a
  - [     2.395182227981500,     4.148576118586696,     0.000000000000000 ] # b
  - [     2.395182193074869,     1.382859449024030,     3.911315246160979 ] # c
  points:
  - symbol: Sn # 1
    coordinates: [  0.749999981497687,  0.750000024867341,  0.750000016373426 ]
    mass: 118.710000
    reduced_to: 1
  - symbol: Sn # 2
    coordinates: [  0.500000018514836,  0.499999975128031,  0.499999983616316 ]
    mass: 118.710000
    reduced_to: 2

supercell:
  lattice:
  - [    14.371093326987166,     0.000000000000000,     0.000000000000000 ] # a
  - [     7.185546683944499,    12.445728355760089,     0.000000000000000 ] # b
  - [     7.185546579224607,     4.148578347072089,    11.733945738482937 ] # c
  points:
  - symbol: Sn # 1
    coordinates: [  0.249999993832562,  0.250000008289114,  0.250000005457809 ]
    mass: 118.710000
    reduced_to: 1
  - symbol: Sn # 2
    coordinates: [  0.583333327165895,  0.250000008289114,  0.250000005457809 ]
    mass: 118.710000
    reduced_to: 1
  - symbol: Sn # 3
    coordinates: [  0.916666660499229,  0.250000008289114,  0.250000005457809 ]
    mass: 118.710000
    reduced_to: 1
  - symbol: Sn # 4
    coordinates: [  0.249999993832562,  0.583333341622447,  0.250000005457809 ]
    mass: 118.710000
    reduced_to: 1
  - symbol: Sn # 5
    coordinates: [  0.583333327165895,  0.583333341622447,  0.250000005457809 ]
    mass: 118.710000
    reduced_to: 1
  - symbol: Sn # 6
    coordinates: [  0.916666660499229,  0.583333341622447,  0.250000005457809 ]
    mass: 118.710000
    reduced_to: 1
  - symbol: Sn # 7
    coordinates: [  0.249999993832562,  0.916666674955780,  0.250000005457809 ]
    mass: 118.710000
    reduced_to: 1
  - symbol: Sn # 8
    coordinates: [  0.583333327165895,  0.916666674955780,  0.250000005457809 ]
    mass: 118.710000
    reduced_to: 1
  - symbol: Sn # 9
    coordinates: [  0.916666660499229,  0.916666674955780,  0.250000005457809 ]
    mass: 118.710000
    reduced_to: 1
  - symbol: Sn # 10
    coordinates: [  0.249999993832562,  0.250000008289114,  0.583333338791142 ]
    mass: 118.710000
    reduced_to: 1
  - symbol: Sn # 11
    coordinates: [  0.583333327165895,  0.250000008289114,  0.583333338791142 ]
    mass: 118.710000
    reduced_to: 1
  - symbol: Sn # 12
    coordinates: [  0.916666660499229,  0.250000008289114,  0.583333338791142 ]
    mass: 118.710000
    reduced_to: 1
  - symbol: Sn # 13
    coordinates: [  0.249999993832562,  0.583333341622447,  0.583333338791142 ]
    mass: 118.710000
    reduced_to: 1
  - symbol: Sn # 14
    coordinates: [  0.583333327165895,  0.583333341622447,  0.583333338791142 ]
    mass: 118.710000
    reduced_to: 1
  - symbol: Sn # 15
    coordinates: [  0.916666660499229,  0.583333341622447,  0.583333338791142 ]
    mass: 118.710000
    reduced_to: 1
  - symbol: Sn # 16
    coordinates: [  0.249999993832562,  0.916666674955780,  0.583333338791142 ]
    mass: 118.710000
    reduced_to: 1
  - symbol: Sn # 17
    coordinates: [  0.583333327165895,  0.916666674955780,  0.583333338791142 ]
    mass: 118.710000
    reduced_to: 1
  - symbol: Sn # 18
    coordinates: [  0.916666660499229,  0.916666674955780,  0.583333338791142 ]
    mass: 118.710000
    reduced_to: 1
  - symbol: Sn # 19
    coordinates: [  0.249999993832562,  0.250000008289114,  0.916666672124475 ]
    mass: 118.710000
    reduced_to: 1
  - symbol: Sn # 20
    coordinates: [  0.583333327165895,  0.250000008289114,  0.916666672124475 ]
    mass: 118.710000
    reduced_to: 1
  - symbol: Sn # 21
    coordinates: [  0.916666660499229,  0.250000008289114,  0.916666672124475 ]
    mass: 118.710000
    reduced_to: 1
  - symbol: Sn # 22
    coordinates: [  0.249999993832562,  0.583333341622447,  0.916666672124475 ]
    mass: 118.710000
    reduced_to: 1
  - symbol: Sn # 23
    coordinates: [  0.583333327165895,  0.583333341622447,  0.916666672124475 ]
    mass: 118.710000
    reduced_to: 1
  - symbol: Sn # 24
    coordinates: [  0.916666660499229,  0.583333341622447,  0.916666672124475 ]
    mass: 118.710000
    reduced_to: 1
  - symbol: Sn # 25
    coordinates: [  0.249999993832562,  0.916666674955780,  0.916666672124475 ]
    mass: 118.710000
    reduced_to: 1
  - symbol: Sn # 26
    coordinates: [  0.583333327165895,  0.916666674955780,  0.916666672124475 ]
    mass: 118.710000
    reduced_to: 1
  - symbol: Sn # 27
    coordinates: [  0.916666660499229,  0.916666674955780,  0.916666672124475 ]
    mass: 118.710000
    reduced_to: 1
  - symbol: Sn # 28
    coordinates: [  0.166666672838279,  0.166666658376010,  0.166666661205439 ]
    mass: 118.710000
    reduced_to: 28
  - symbol: Sn # 29
    coordinates: [  0.500000006171612,  0.166666658376010,  0.166666661205439 ]
    mass: 118.710000
    reduced_to: 28
  - symbol: Sn # 30
    coordinates: [  0.833333339504945,  0.166666658376010,  0.166666661205439 ]
    mass: 118.710000
    reduced_to: 28
  - symbol: Sn # 31
    coordinates: [  0.166666672838279,  0.499999991709344,  0.166666661205439 ]
    mass: 118.710000
    reduced_to: 28
  - symbol: Sn # 32
    coordinates: [  0.500000006171612,  0.499999991709344,  0.166666661205439 ]
    mass: 118.710000
    reduced_to: 28
  - symbol: Sn # 33
    coordinates: [  0.833333339504945,  0.499999991709344,  0.166666661205439 ]
    mass: 118.710000
    reduced_to: 28
  - symbol: Sn # 34
    coordinates: [  0.166666672838279,  0.833333325042677,  0.166666661205439 ]
    mass: 118.710000
    reduced_to: 28
  - symbol: Sn # 35
    coordinates: [  0.500000006171612,  0.833333325042677,  0.166666661205439 ]
    mass: 118.710000
    reduced_to: 28
  - symbol: Sn # 36
    coordinates: [  0.833333339504945,  0.833333325042677,  0.166666661205439 ]
    mass: 118.710000
    reduced_to: 28
  - symbol: Sn # 37
    coordinates: [  0.166666672838279,  0.166666658376010,  0.499999994538772 ]
    mass: 118.710000
    reduced_to: 28
  - symbol: Sn # 38
    coordinates: [  0.500000006171612,  0.166666658376010,  0.499999994538772 ]
    mass: 118.710000
    reduced_to: 28
  - symbol: Sn # 39
    coordinates: [  0.833333339504945,  0.166666658376010,  0.499999994538772 ]
    mass: 118.710000
    reduced_to: 28
  - symbol: Sn # 40
    coordinates: [  0.166666672838279,  0.499999991709344,  0.499999994538772 ]
    mass: 118.710000
    reduced_to: 28
  - symbol: Sn # 41
    coordinates: [  0.500000006171612,  0.499999991709344,  0.499999994538772 ]
    mass: 118.710000
    reduced_to: 28
  - symbol: Sn # 42
    coordinates: [  0.833333339504945,  0.499999991709344,  0.499999994538772 ]
    mass: 118.710000
    reduced_to: 28
  - symbol: Sn # 43
    coordinates: [  0.166666672838279,  0.833333325042677,  0.499999994538772 ]
    mass: 118.710000
    reduced_to: 28
  - symbol: Sn # 44
    coordinates: [  0.500000006171612,  0.833333325042677,  0.499999994538772 ]
    mass: 118.710000
    reduced_to: 28
  - symbol: Sn # 45
    coordinates: [  0.833333339504945,  0.833333325042677,  0.499999994538772 ]
    mass: 118.710000
    reduced_to: 28
  - symbol: Sn # 46
    coordinates: [  0.166666672838279,  0.166666658376010,  0.833333327872105 ]
    mass: 118.710000
    reduced_to: 28
  - symbol: Sn # 47
    coordinates: [  0.500000006171612,  0.166666658376010,  0.833333327872105 ]
    mass: 118.710000
    reduced_to: 28
  - symbol: Sn # 48
    coordinates: [  0.833333339504945,  0.166666658376010,  0.833333327872105 ]
    mass: 118.710000
    reduced_to: 28
  - symbol: Sn # 49
    coordinates: [  0.166666672838279,  0.499999991709344,  0.833333327872105 ]
    mass: 118.710000
    reduced_to: 28
  - symbol: Sn # 50
    coordinates: [  0.500000006171612,  0.499999991709344,  0.833333327872105 ]
    mass: 118.710000
    reduced_to: 28
  - symbol: Sn # 51
    coordinates: [  0.833333339504945,  0.499999991709344,  0.833333327872105 ]
    mass: 118.710000
    reduced_to: 28
  - symbol: Sn # 52
    coordinates: [  0.166666672838279,  0.833333325042677,  0.833333327872105 ]
    mass: 118.710000
    reduced_to: 28
  - symbol: Sn # 53
    coordinates: [  0.500000006171612,  0.833333325042677,  0.833333327872105 ]
    mass: 118.710000
    reduced_to: 28
  - symbol: Sn # 54
    coordinates: [  0.833333339504945,  0.833333325042677,  0.833333327872105 ]
    mass: 118.710000
    reduced_to: 28

displacements:
- atom:    1
  displacement:
    [   0.0100000000000000,  0.0000000000000000,  0.0000000000000000 ]
  forces:
  - [  -0.0624215193092823,  0.0002678568707779,  0.0001937284832820 ]
  - [  -0.0003905382473022, -0.0006740523967892, -0.0004792944528162 ]
  - [  -0.0004698934499174,  0.0006598454201594,  0.0004654283402488 ]
  - [  -0.0003809911431745,  0.0006664098473266, -0.0005431263125502 ]
  - [  -0.0000652684830129, -0.0000008530677746, -0.0000022904714569 ]
  - [  -0.0004051198484376, -0.0006407147739083,  0.0005442224792205 ]
  - [  -0.0004053990123793, -0.0007045248639770, -0.0000778057146817 ]
  - [  -0.0003955098800361,  0.0006558446330018,  0.0000722861732356 ]
  - [  -0.0000660913065076, -0.0000066140055424, -0.0000075872521847 ]
  - [  -0.0003841595025733, -0.0002914478536695,  0.0008059913525358 ]
  - [  -0.0000620424034423, -0.0000045479391702, -0.0000024084583856 ]
  - [  -0.0004093016614206,  0.0002989387139678, -0.0007876434247009 ]
  - [  -0.0000162895303220, -0.0000291389296763, -0.0000227417331189 ]
  - [  -0.0000184969976544,  0.0000228749122471,  0.0000143667566590 ]
  - [   0.0000287410803139, -0.0000061314203776, -0.0000065799104050 ]
  - [   0.0001126555216615, -0.0000160397612490,  0.0000015139812604 ]
  - [  -0.0000145279336721,  0.0000259428052232, -0.0000517261214554 ]
  - [  -0.0000214213796426, -0.0000362353748642,  0.0000432372326031 ]
  - [  -0.0004057734622620, -0.0003064043994527, -0.0006371601484716 ]
  - [  -0.0003975774743594,  0.0002882988774218,  0.0005953829386272 ]
  - [  -0.0000672783353366, -0.0000075907155406, -0.0000037259305827 ]
  - [   0.0001155619684141, -0.0000015671830624, -0.0000143031356856 ]
  - [  -0.0000140751653817, -0.0000381320132874,  0.0000430507352576 ]
  - [  -0.0000207647681236,  0.0000307908048853, -0.0000471049570478 ]
  - [  -0.0000185472890735, -0.0000301797990687, -0.0000180313363671 ]
  - [   0.0000278060324490, -0.0000081232283264, -0.0000033956021070 ]
  - [  -0.0000134372385219,  0.0000172647414729,  0.0000147079117596 ]
  - [   0.0279201194643974,  0.0132046677172184,  0.0093378312885761 ]
  - [   0.0282210148870945, -0.0133892726153135, -0.0094668902456760 ]
  - [   0.0007807090296410,  0.0000060256570578,  0.0000059607555158 ]
  - [   0.0050267707556486, -0.0000391312642023,  0.0000090370303951 ]
  - [  -0.0001042311196215,  0.0005105417221785, -0.0001658608671278 ]
  - [  -0.0001003390352707, -0.0005169927026145,  0.0001726526534185 ]
  - [   0.0004933257005177,  0.0001693779049674,  0.0002401520614512 ]
  - [  -0.0009898795979097,  0.0000032578682294,  0.0000018863938749 ]
  - [   0.0005013592890464, -0.0001617331290618, -0.0002323728404008 ]
  - [   0.0050318837165833, -0.0000019647413865, -0.0000442270538770 ]
  - [  -0.0001047745172400,  0.0000147603277583,  0.0005381862283684 ]
  - [  -0.0001009329280350, -0.0000042459869292, -0.0005424408591352 ]
  - [   0.0000051925599109, -0.0000506600481458, -0.0000355347874574 ]
  - [  -0.0000101524638012,  0.0000044110347517,  0.0000027948990464 ]
  - [   0.0000108349777292,  0.0000587997055845,  0.0000420137075707 ]
  - [  -0.0000109135871753, -0.0000586466485402, -0.0005708873504773 ]
  - [  -0.0000109012471512,  0.0000631260918453,  0.0005830777809024 ]
  - [   0.0000157107424457,  0.0000058546429500,  0.0000059260637499 ]
  - [   0.0004934371099807,  0.0002838755026460,  0.0000789006589912 ]
  - [  -0.0009873891249299,  0.0000036780838855,  0.0000018858117983 ]
  - [   0.0005032686167397, -0.0002728903782554, -0.0000755815417506 ]
  - [  -0.0000123341451399, -0.0005576413823292,  0.0001365263015032 ]
  - [  -0.0000122339406516,  0.0005710385739803, -0.0001334717380814 ]
  - [   0.0000155123125296,  0.0000074463314377,  0.0000057224533521 ]
  - [   0.0000072850380093,  0.0000052411924116,  0.0000057949800976 ]
  - [   0.0000015495752450,  0.0000223946990445,  0.0000172399450094 ]
  - [  -0.0000046351633500, -0.0000130899134092, -0.0000073116389103 ]

force_constants:
  format: "full"
  shape: [ 54, 54 ]
  elements:
  - # (1, 1)
    - [     6.242151907603128,    -0.000000005376134,     0.000000004543779 ]
    - [    -0.000000005376134,     6.242151940550699,    -0.000000013580038 ]
    - [     0.000000004543779,    -0.000000013580038,     6.242151952871499 ]
  - # (1, 2)
    - [     0.042577060917473,     0.066653321435764,     0.047131001623809 ]
    - [    -0.066653340290890,     0.039035100949314,     0.035703420672727 ]
    - [    -0.047130999234915,     0.035703420426651,     0.013788972449013 ]
  - # (1, 3)
    - [     0.042577060899431,    -0.066653317127175,    -0.047130998289572 ]
    - [     0.066653322633902,     0.039035116844313,     0.035703430842724 ]
    - [     0.047131004925071,     0.035703425946080,     0.013788992097517 ]
  - # (1, 4)
    - [     0.039920584325518,    -0.065119586248684,     0.054485594648804 ]
    - [     0.068187052152877,     0.041691607178816,     0.022964932438170 ]
    - [     0.007354560371418,    -0.058668374782915,     0.013788976481888 ]
  - # (1, 5)
    - [     0.006379294389341,    -0.000000015834042,    -0.000000010509353 ]
    - [    -0.000000030135602,     0.006379280739445,    -0.000000000411255 ]
    - [    -0.000000015308617,     0.000000008287862,    -0.000479166652091 ]
  - # (1, 6)
    - [     0.039920589407814,     0.065119582216896,    -0.054485589125859 ]
    - [    -0.068187074336320,     0.041691598817122,     0.022964922104030 ]
    - [    -0.007354561973360,    -0.058668368271994,     0.013788979754695 ]
  - # (1, 7)
    - [     0.039920595922217,     0.068187038405478,     0.007354580105667 ]
    - [    -0.065119622430112,     0.041691560699991,    -0.058668392428682 ]
    - [     0.054485612534322,     0.022964937130938,     0.013788995776920 ]
  - # (1, 8)
    - [     0.039920569033860,    -0.068187045158378,    -0.007354564302753 ]
    - [     0.065119596164524,     0.041691597691440,    -0.058668400244737 ]
    - [    -0.054485590159858,     0.022964925511604,     0.013789007294121 ]
  - # (1, 9)
    - [     0.006379271374117,     0.000000003621556,     0.000000010987056 ]
    - [    -0.000000000527643,     0.006379287348679,    -0.000000011867384 ]
    - [     0.000000000451009,    -0.000000004235187,    -0.000479126447237 ]
  - # (1, 10)
    - [     0.039920570190971,     0.029662969414413,    -0.079557187252150 ]
    - [     0.029662966237375,     0.005668764595314,    -0.045932376803403 ]
    - [     0.061835848261961,     0.035700941401498,     0.049811830128551 ]
  - # (1, 11)
    - [     0.006379274900064,    -0.000000009166782,    -0.000000004445828 ]
    - [    -0.000000020038965,     0.000282895218875,     0.002155396101426 ]
    - [    -0.000000015170379,     0.002155395384863,     0.005617248906719 ]
  - # (1, 12)
    - [     0.039920567356336,    -0.029662962009696,     0.079557199709505 ]
    - [    -0.029662981712090,     0.005668752085822,    -0.045932373873339 ]
    - [    -0.061835838279404,     0.035700933465489,     0.049811828719069 ]
  - # (1, 13)
    - [     0.001807003606655,     0.002639818483330,     0.001866632168445 ]
    - [     0.002639809408932,     0.004855184379535,    -0.001077707677881 ]
    - [     0.001866624959178,    -0.001077698333646,     0.005617246829485 ]
  - # (1, 14)
    - [     0.001807013441608,    -0.002639815222743,    -0.001866628643855 ]
    - [    -0.002639831285422,     0.004855183572490,    -0.001077705367312 ]
    - [    -0.001866629729509,    -0.001077697386815,     0.005617249208606 ]
  - # (1, 15)
    - [    -0.003364295294819,    -0.000000008489414,     0.000000000668182 ]
    - [    -0.000000009773575,     0.003839060233584,     0.005093542915911 ]
    - [    -0.000000007390326,     0.005093565426611,     0.000237370213636 ]
  - # (1, 16)
    - [    -0.011457201120842,     0.000000004060653,     0.000000005536962 ]
    - [    -0.000000006068738,     0.057046542163977,     0.091864745995961 ]
    - [     0.000000003784400,    -0.071401871306938,     0.049811840775996 ]
  - # (1, 17)
    - [     0.002038205956710,    -0.003119147967413,     0.004411153733243 ]
    - [    -0.003119157563557,    -0.001563485844236,    -0.002546778451615 ]
    - [     0.004411150671534,    -0.002546772675882,     0.000237355259516 ]
  - # (1, 18)
    - [     0.002038209722190,     0.003119157509101,    -0.004411141861907 ]
    - [     0.003119141347158,    -0.001563493459040,    -0.002546772864635 ]
    - [    -0.004411148042760,    -0.002546761121652,     0.000237376644229 ]
  - # (1, 19)
    - [     0.039920586091528,     0.029662985790552,     0.061835828786645 ]
    - [     0.029662962137775,     0.005668772812613,     0.035700914805923 ]
    - [    -0.079557224927895,    -0.045932387169955,     0.049811811600528 ]
  - # (1, 20)
    - [     0.039920568027025,    -0.029662993378408,    -0.061835816459292 ]
    - [    -0.029662986938060,     0.005668762610310,     0.035700905982698 ]
    - [     0.079557218594621,    -0.045932399850826,     0.049811800267798 ]
  - # (1, 21)
    - [     0.006379279651840,    -0.000000002626317,    -0.000000003900972 ]
    - [    -0.000000025702622,     0.000282884017510,     0.002155397716984 ]
    - [    -0.000000002445561,     0.002155406859854,     0.005617256862033 ]
  - # (1, 22)
    - [    -0.011457227457250,     0.000000002961464,     0.000000005679779 ]
    - [    -0.000000004240539,     0.057046529766246,    -0.071401894221440 ]
    - [    -0.000000000138958,     0.091864749728288,     0.049811815079865 ]
  - # (1, 23)
    - [     0.002038214041008,     0.003119145453581,    -0.004411150003272 ]
    - [     0.003119127029061,    -0.001563467037394,    -0.002546772652072 ]
    - [    -0.004411159443902,    -0.002546773382172,     0.000237364439985 ]
  - # (1, 24)
    - [     0.002038210590960,    -0.003119149718866,     0.004411151813797 ]
    - [    -0.003119149908784,    -0.001563492317002,    -0.002546773868876 ]
    - [     0.004411150610726,    -0.002546761812435,     0.000237357026334 ]
  - # (1, 25)
    - [     0.001806982165285,     0.002639829050763,     0.001866654052859 ]
    - [     0.002639828817474,     0.004855178603140,    -0.001077706260051 ]
    - [     0.001866637415829,    -0.001077697767731,     0.005617265805329 ]
  - # (1, 26)
    - [    -0.003364310025956,     0.000000011358642,     0.000000001173729 ]
    - [    -0.000000009771395,     0.003839041602864,     0.005093549206911 ]
    - [     0.000000005487744,     0.005093566091240,     0.000237357958242 ]
  - # (1, 27)
    - [     0.001806957747992,    -0.002639812838817,    -0.001866625958582 ]
    - [    -0.002639825093672,     0.004855200702955,    -0.001077724006275 ]
    - [    -0.001866634937098,    -0.001077722875530,     0.005617292775925 ]
  - # (1, 28)
    - [    -2.806801189981792,    -1.329991622235218,    -0.940445913480177 ]
    - [    -1.329991628861766,    -1.271059315091011,    -0.542966758429710 ]
    - [    -0.940445938337046,    -0.542966757830508,    -0.887123641127859 ]
  - # (1, 29)
    - [    -2.806800822641430,     1.329991556208909,     0.940445840882645 ]
    - [     1.329992125826999,    -1.271059717457856,    -0.542966838225817 ]
    - [     0.940445946714735,    -0.542966655402249,    -0.887123623883396 ]
  - # (1, 30)
    - [    -0.078268048034751,    -0.000000025698347,    -0.000000013579598 ]
    - [    -0.000000032593891,    -0.040078315802615,    -0.027514243672259 ]
    - [    -0.000000008993035,    -0.027514236817656,    -0.020622832035587 ]
  - # (1, 31)
    - [    -0.503188300018734,     0.000000010765788,    -0.000000001531148 ]
    - [    -0.000000013381168,    -3.574671928059070,     1.085933772970342 ]
    - [    -0.000000002467113,     1.085933789393059,    -0.887123958153287 ]
  - # (1, 32)
    - [     0.010206118308251,    -0.051231818130727,     0.017053160078344 ]
    - [    -0.051231851682716,     0.069363582260875,     0.009845619150823 ]
    - [     0.017053166467767,     0.009845619476178,    -0.019122110561153 ]
  - # (1, 33)
    - [     0.010206083315071,     0.051231851156727,    -0.017053136641659 ]
    - [     0.051231841596223,     0.069363568203898,     0.009845612502993 ]
    - [    -0.017053143102118,     0.009845609464571,    -0.019122102534625 ]
  - # (1, 34)
    - [    -0.049625778036191,    -0.016536634630221,    -0.023828017524221 ]
    - [    -0.016536649968096,    -0.068720647451711,     0.013757118531292 ]
    - [    -0.023828019934625,     0.013757125598670,    -0.020622827919482 ]
  - # (1, 35)
    - [     0.098942242123126,    -0.000000003618557,     0.000000001438641 ]
    - [    -0.000000000449638,    -0.019372571046093,    -0.019691295806051 ]
    - [    -0.000000001477530,    -0.019691291758069,    -0.019122102883357 ]
  - # (1, 36)
    - [    -0.049625736853228,     0.016536643514750,     0.023828019250200 ]
    - [     0.016536636654078,    -0.068720641673740,     0.013757123963135 ]
    - [     0.023828024368812,     0.013757144268874,    -0.020622869103999 ]
  - # (1, 37)
    - [    -0.503188097154229,    -0.000000021636251,    -0.000000132710741 ]
    - [    -0.000000032134518,    -0.503188364543589,     0.000000388817955 ]
    - [    -0.000000009194509,    -0.000000227256187,    -3.958608359507341 ]
  - # (1, 38)
    - [     0.010206118530936,    -0.000999418598203,    -0.053986204753972 ]
    - [    -0.000999421086007,    -0.003101995276717,     0.035466079631408 ]
    - [    -0.053986226807778,     0.035466087193194,     0.053343446892741 ]
  - # (1, 39)
    - [     0.010206104586704,     0.000999434451751,     0.053986223761634 ]
    - [     0.000999415519613,    -0.003101989034136,     0.035466068730609 ]
    - [     0.053986227321193,     0.035466086670317,     0.053343439224781 ]
  - # (1, 40)
    - [    -0.000640544093918,     0.005262896749037,     0.003721432432144 ]
    - [     0.005262877814928,     0.007744593840721,    -0.064486509565308 ]
    - [     0.003721423369515,    -0.064486473727591,     0.053343474533090 ]
  - # (1, 41)
    - [     0.001015189729301,     0.000000004229824,     0.000000006343256 ]
    - [    -0.000000002710262,     0.001015239808159,    -0.000000020093347 ]
    - [     0.000000005232336,    -0.000000013096438,     0.001015272182341 ]
  - # (1, 42)
    - [    -0.000640556418388,    -0.005262875652142,    -0.003721412696934 ]
    - [    -0.005262882979383,     0.007744605636831,    -0.064486504091214 ]
    - [    -0.003721415233104,    -0.064486481000022,     0.053343470331367 ]
  - # (1, 43)
    - [     0.001090525213237,     0.006262306896883,     0.057707633581263 ]
    - [     0.006262301871728,     0.006013590652867,     0.029020374013225 ]
    - [     0.057707643799324,     0.029020390222230,     0.053343439906627 ]
  - # (1, 44)
    - [     0.001090527171502,    -0.006262302876212,    -0.057707625523978 ]
    - [    -0.006262318801870,     0.006013589813636,     0.029020375126535 ]
    - [    -0.057707648861107,     0.029020398831802,     0.053343432172697 ]
  - # (1, 45)
    - [    -0.001895058429980,    -0.000000002535483,     0.000000001314392 ]
    - [    -0.000000010915865,    -0.001895044485011,    -0.000000010029590 ]
    - [    -0.000000007880119,     0.000000003030085,     0.001679780663998 ]
  - # (1, 46)
    - [    -0.049625789411974,    -0.027977495000047,    -0.007648219150462 ]
    - [    -0.027977511508460,    -0.017320128737355,    -0.004415721830376 ]
    - [    -0.007648229212437,    -0.004415724208186,    -0.072023334384922 ]
  - # (1, 47)
    - [     0.098942242973727,     0.000000024238172,     0.000000018479941 ]
    - [    -0.000000008386296,    -0.031526685609610,    -0.015394158870760 ]
    - [     0.000000006391968,    -0.015394145379362,    -0.006968010302744 ]
  - # (1, 48)
    - [    -0.049625746759905,     0.027977492304638,     0.007648220279518 ]
    - [     0.027977488818251,    -0.017320155824516,    -0.004415684126193 ]
    - [     0.007648217449168,    -0.004415693197105,    -0.072023333090609 ]
  - # (1, 49)
    - [     0.001090546067989,     0.056494699548584,    -0.013331716015355 ]
    - [     0.056494729677359,     0.066325022508135,     0.007697071570664 ]
    - [    -0.013331730197723,     0.007697059978934,    -0.006968025004647 ]
  - # (1, 50)
    - [     0.001090546326097,    -0.056494693177735,     0.013331725634621 ]
    - [    -0.056494742978241,     0.066325027370308,     0.007697068258141 ]
    - [     0.013331729989724,     0.007697057925841,    -0.006968023413495 ]
  - # (1, 51)
    - [    -0.001895088551900,     0.000000012585409,     0.000000011894608 ]
    - [     0.000000006604050,     0.001282599090106,    -0.001123487804261 ]
    - [     0.000000007956878,    -0.001123483045291,    -0.001497839947996 ]
  - # (1, 52)
    - [    -0.001167338828231,    -0.000000013719492,    -0.000000010557191 ]
    - [    -0.000000023282522,    -0.065778567430806,     0.008831387026982 ]
    - [    -0.000000010866608,     0.008831400966981,    -0.072023365586808 ]
  - # (1, 53)
    - [     0.000488150322824,    -0.001375952781689,    -0.000972937257310 ]
    - [    -0.001375962034505,    -0.001100643325064,     0.000561713086403 ]
    - [    -0.000972950133858,     0.000561724260260,    -0.001497808814699 ]
  - # (1, 54)
    - [     0.000488157081681,     0.001375949040532,     0.000972941572672 ]
    - [     0.001375944637020,    -0.001100612864018,     0.000561704959908 ]
    - [     0.000972948208242,     0.000561714330405,    -0.001497839779809 ]
  - # (2, 1)
    - [     0.042577060917473,    -0.066653340290890,    -0.047130999234915 ]
    - [     0.066653321435764,     0.039035100949314,     0.035703420426651 ]
    - [     0.047131001623809,     0.035703420672727,     0.013788972449013 ]
  - # (2, 2)
    - [     6.242149249286935,    -0.000001534183750,    -0.000000947291680 ]
    - [    -0.000001534183750,     6.242154563750489,    -0.000001819858972 ]
    - [    -0.000000947291680,    -0.000001819858972,     6.242151952365941 ]
  - # (2, 3)
    - [     0.042577040070174,     0.066653340887038,     0.047131006424440 ]
    - [    -0.066653309972122,     0.039035110049465,     0.035703441065007 ]
    - [    -0.047130992096896,     0.035703440948981,     0.013788990813265 ]
  - # (2, 4)
    - [     0.039920584095079,     0.065119609305401,    -0.054485595014593 ]
    - [    -0.068187032527005,     0.041691593213853,     0.022964951593049 ]
    - [    -0.007354545346807,    -0.058668392145634,     0.013788990239878 ]
  - # (2, 5)
    - [     0.039920593922063,    -0.065119621915633,     0.054485583281311 ]
    - [     0.068187030540277,     0.041691554052056,     0.022964947166149 ]
    - [     0.007354552982858,    -0.058668392292826,     0.013788974802403 ]
  - # (2, 6)
    - [     0.006379296173480,    -0.000000001711051,    -0.000000005285751 ]
    - [     0.000000002518519,     0.006379275870609,    -0.000000003678788 ]
    - [    -0.000000002352458,     0.000000004944849,    -0.000479145131316 ]
  - # (2, 7)
    - [     0.006379296053105,     0.000000020506900,     0.000000006506370 ]
    - [     0.000000021607771,     0.006379262526239,     0.000000010610556 ]
    - [     0.000000013429854,     0.000000012196264,    -0.000479144533655 ]
  - # (2, 8)
    - [     0.039920550919159,     0.068187051014851,     0.007354556658974 ]
    - [    -0.065119577976100,     0.041691605848092,    -0.058668390014962 ]
    - [     0.054485582919511,     0.022964924440047,     0.013789000013188 ]
  - # (2, 9)
    - [     0.039920567142770,    -0.068187047653950,    -0.007354545404351 ]
    - [     0.065119624010821,     0.041691575952221,    -0.058668402308044 ]
    - [    -0.054485588891255,     0.022964941144756,     0.013789012472252 ]
  - # (2, 10)
    - [     0.039920576807002,    -0.029662966903927,     0.079557209796690 ]
    - [    -0.029662951535347,     0.005668765818398,    -0.045932383190849 ]
    - [    -0.061835824377289,     0.035700956399098,     0.049811816183377 ]
  - # (2, 11)
    - [     0.039920572569916,     0.029662970784326,    -0.079557217964070 ]
    - [     0.029662977685531,     0.005668743303331,    -0.045932380984349 ]
    - [     0.061835810676947,     0.035700930915202,     0.049811800735343 ]
  - # (2, 12)
    - [     0.006379280356453,    -0.000000003809929,     0.000000001235368 ]
    - [     0.000000011055795,     0.000282879774023,     0.002155414732235 ]
    - [     0.000000001413634,     0.002155399483176,     0.005617250975989 ]