phonopy:
  version: "2.37.1"
  frequency_unit_conversion_factor: 15.633302
  symmetry_tolerance: 1.00000e-05

space_group:
  type: "P1"
  number: 1
  Hall_symbol: "P 1"

primitive_matrix:
- [ -1.000000000000000,  0.000000000000000,  0.000000000000000 ]
- [  0.000000000000000,  1.000000000000000, -1.000000000000000 ]
- [  0.000000000000000,  0.000000000000000, -1.000000000000000 ]

supercell_matrix:
- [   3,   0,   0 ]
- [   0,   3,   0 ]
- [   0,   0,   1 ]

primitive_cell:
  lattice:
  - [    -4.263505199834650,     0.000000000000000,     0.000000000000000 ] # a
  - [     0.000012421063458,     4.264775277927709,     0.000000000000000 ] # b
  - [     2.128552811724580,    -2.126578761799758,   -11.762842529462697 ] # c
  points:
  - symbol: Li # 1
    coordinates: [  0.619764573679389,  0.557141856204231,  0.896988510208956 ]
    mass: 6.940000
  - symbol: Li # 2
    coordinates: [  0.209168583483844,  0.646779125899938,  0.075344325162903 ]
    mass: 6.940000
  - symbol: Li # 3
    coordinates: [  0.530977260252299,  0.967613578394607,  0.719564056702885 ]
    mass: 6.940000
  - symbol: Li # 4
    coordinates: [  0.869503947454226,  0.307832057879218,  0.397266841619703 ]
    mass: 6.940000
  - symbol: Li # 5
    coordinates: [  0.944952046440075,  0.882399595821584,  0.548395439358253 ]
    mass: 6.940000
  - symbol: Li # 6
    coordinates: [  0.293901268781556,  0.232007728837520,  0.245482825230014 ]
    mass: 6.940000
  - symbol: Ga # 7
    coordinates: [  0.798442538982236,  0.736532031470670,  0.254095160121574 ]
    mass: 69.723000
  - symbol: Ga # 8
    coordinates: [  0.369399622670331,  0.806671048981527,  0.396773882328308 ]
    mass: 69.723000
  - symbol: Ga # 9
    coordinates: [  0.120484431777478,  0.057609632838496,  0.897839716429517 ]
    mass: 69.723000
  - symbol: Ga # 10
    coordinates: [  0.440766767162809,  0.377600754201753,  0.540063565923658 ]
    mass: 69.723000
  - symbol: Sn # 11
    coordinates: [  0.029592874183004,  0.466637698615320,  0.717283508156559 ]
    mass: 118.710000
  - symbol: Sn # 12
    coordinates: [  0.709843115430837,  0.147573694895676,  0.076682878408089 ]
    mass: 118.710000
  reciprocal_lattice: # without 2pi
  - [    -0.234548793335301,     0.000000683118161,    -0.042443052773558 ] # a*
  - [    -0.000000000000000,     0.234478943163896,    -0.042390939041532 ] # b*
  - [    -0.000000000000000,     0.000000000000000,    -0.085013464857263 ] # c*

unit_cell:
  lattice:
  - [     4.263505199834650,     0.000000000000000,     0.000000000000000 ] # a
  - [     0.000012421063458,     4.264775277927709,     0.000000000000000 ] # b
  - [    -2.128565232788038,    -2.138196516127952,    11.762842529462697 ] # c
  points:
  - symbol: Li # 1
    coordinates: [  0.380235426320611,  0.660153345995275,  0.103011489791044 ]
    mass: 6.940000
    reduced_to: 1
  - symbol: Li # 2
    coordinates: [  0.790831416516156,  0.571434800737035,  0.924655674837097 ]
    mass: 6.940000
    reduced_to: 2
  - symbol: Li # 3
    coordinates: [  0.469022739747701,  0.248049521691722,  0.280435943297115 ]
    mass: 6.940000
    reduced_to: 3
  - symbol: Li # 4
    coordinates: [  0.130496052545774,  0.910565216259516,  0.602733158380297 ]
    mass: 6.940000
    reduced_to: 4
  - symbol: Li # 5
    coordinates: [  0.055047953559925,  0.334004156463331,  0.451604560641747 ]
    mass: 6.940000
    reduced_to: 5
  - symbol: Li # 6
    coordinates: [  0.706098731218444,  0.986524903607506,  0.754517174769986 ]
    mass: 6.940000
    reduced_to: 6
  - symbol: Ga # 7
    coordinates: [  0.201557461017764,  0.482436871349097,  0.745904839878426 ]
    mass: 69.723000
    reduced_to: 7
  - symbol: Ga # 8
    coordinates: [  0.630600377329669,  0.409897166653218,  0.603226117671692 ]
    mass: 69.723000
    reduced_to: 8
  - symbol: Ga # 9
    coordinates: [  0.879515568222522,  0.159769916408979,  0.102160283570483 ]
    mass: 69.723000
    reduced_to: 9
  - symbol: Ga # 10
    coordinates: [  0.559233232837191,  0.837537188278095,  0.459936434076342 ]
    mass: 69.723000
    reduced_to: 10
  - symbol: Sn # 11
    coordinates: [  0.970407125816996,  0.749354190458761,  0.282716491843441 ]
    mass: 118.710000
    reduced_to: 11
  - symbol: Sn # 12
    coordinates: [  0.290156884569163,  0.070890816487587,  0.923317121591911 ]
    mass: 118.710000
    reduced_to: 12

supercell:
  lattice:
  - [    12.790515599503951,     0.000000000000000,     0.000000000000000 ] # a
  - [     0.000037263190373,    12.794325833783128,     0.000000000000000 ] # b
  - [    -2.128565232788038,    -2.138196516127952,    11.762842529462697 ] # c
  points:
  - symbol: Li # 1
    coordinates: [  0.126745142106870,  0.220051115331758,  0.103011489791044 ]
    mass: 6.940000
    reduced_to: 1
  - symbol: Li # 2
    coordinates: [  0.460078475440204,  0.220051115331758,  0.103011489791044 ]
    mass: 6.940000
    reduced_to: 1
  - symbol: Li # 3
    coordinates: [  0.793411808773537,  0.220051115331758,  0.103011489791044 ]
    mass: 6.940000
    reduced_to: 1
  - symbol: Li # 4
    coordinates: [  0.126745142106870,  0.553384448665092,  0.103011489791044 ]
    mass: 6.940000
    reduced_to: 1
  - symbol: Li # 5
    coordinates: [  0.460078475440204,  0.553384448665092,  0.103011489791044 ]
    mass: 6.940000
    reduced_to: 1
  - symbol: Li # 6
    coordinates: [  0.793411808773537,  0.553384448665092,  0.103011489791044 ]
    mass: 6.940000
    reduced_to: 1
  - symbol: Li # 7
    coordinates: [  0.126745142106870,  0.886717781998425,  0.103011489791044 ]
    mass: 6.940000
    reduced_to: 1
  - symbol: Li # 8
    coordinates: [  0.460078475440204,  0.886717781998425,  0.103011489791044 ]
    mass: 6.940000
    reduced_to: 1
  - symbol: Li # 9
    coordinates: [  0.793411808773537,  0.886717781998425,  0.103011489791044 ]
    mass: 6.940000
    reduced_to: 1
  - symbol: Li # 10
    coordinates: [  0.263610472172052,  0.190478266912345,  0.924655674837097 ]
    mass: 6.940000
    reduced_to: 10
  - symbol: Li # 11
    coordinates: [  0.596943805505385,  0.190478266912345,  0.924655674837097 ]
    mass: 6.940000
    reduced_to: 10
  - symbol: Li # 12
    coordinates: [  0.930277138838719,  0.190478266912345,  0.924655674837097 ]
    mass: 6.940000
    reduced_to: 10
  - symbol: Li # 13
    coordinates: [  0.263610472172052,  0.523811600245678,  0.924655674837097 ]
    mass: 6.940000
    reduced_to: 10
  - symbol: Li # 14
    coordinates: [  0.596943805505385,  0.523811600245678,  0.924655674837097 ]
    mass: 6.940000
    reduced_to: 10
  - symbol: Li # 15
    coordinates: [  0.930277138838719,  0.523811600245678,  0.924655674837097 ]
    mass: 6.940000
    reduced_to: 10
  - symbol: Li # 16
    coordinates: [  0.263610472172052,  0.857144933579012,  0.924655674837097 ]
    mass: 6.940000
    reduced_to: 10
  - symbol: Li # 17
    coordinates: [  0.596943805505385,  0.857144933579012,  0.924655674837097 ]
    mass: 6.940000
    reduced_to: 10
  - symbol: Li # 18
    coordinates: [  0.930277138838719,  0.857144933579012,  0.924655674837097 ]
    mass: 6.940000
    reduced_to: 10
  - symbol: Li # 19
    coordinates: [  0.156340913249234,  0.082683173897241,  0.280435943297115 ]
    mass: 6.940000
    reduced_to: 19
  - symbol: Li # 20
    coordinates: [  0.489674246582567,  0.082683173897241,  0.280435943297115 ]
    mass: 6.940000
    reduced_to: 19
  - symbol: Li # 21
    coordinates: [  0.823007579915900,  0.082683173897241,  0.280435943297115 ]
    mass: 6.940000
    reduced_to: 19
  - symbol: Li # 22
    coordinates: [  0.156340913249234,  0.416016507230574,  0.280435943297115 ]
    mass: 6.940000
    reduced_to: 19
  - symbol: Li # 23
    coordinates: [  0.489674246582567,  0.416016507230574,  0.280435943297115 ]
    mass: 6.940000
    reduced_to: 19
  - symbol: Li # 24
    coordinates: [  0.823007579915900,  0.416016507230574,  0.280435943297115 ]
    mass: 6.940000
    reduced_to: 19
  - symbol: Li # 25
    coordinates: [  0.156340913249234,  0.749349840563907,  0.280435943297115 ]
    mass: 6.940000
    reduced_to: 19
  - symbol: Li # 26
    coordinates: [  0.489674246582567,  0.749349840563907,  0.280435943297115 ]
    mass: 6.940000
    reduced_to: 19
  - symbol: Li # 27
    coordinates: [  0.823007579915900,  0.749349840563907,  0.280435943297115 ]
    mass: 6.940000
    reduced_to: 19
  - symbol: Li # 28
    coordinates: [  0.043498684181925,  0.303521738753172,  0.602733158380297 ]
    mass: 6.940000
    reduced_to: 28
  - symbol: Li # 29
    coordinates: [  0.376832017515258,  0.303521738753172,  0.602733158380297 ]
    mass: 6.940000
    reduced_to: 28
  - symbol: Li # 30
    coordinates: [  0.710165350848591,  0.303521738753172,  0.602733158380297 ]
    mass: 6.940000
    reduced_to: 28
  - symbol: Li # 31
    coordinates: [  0.043498684181925,  0.636855072086505,  0.602733158380297 ]
    mass: 6.940000
    reduced_to: 28
  - symbol: Li # 32
    coordinates: [  0.376832017515258,  0.636855072086505,  0.602733158380297 ]
    mass: 6.940000
    reduced_to: 28
  - symbol: Li # 33
    coordinates: [  0.710165350848591,  0.636855072086505,  0.602733158380297 ]
    mass: 6.940000
    reduced_to: 28
  - symbol: Li # 34
    coordinates: [  0.043498684181925,  0.970188405419839,  0.602733158380297 ]
    mass: 6.940000
    reduced_to: 28
  - symbol: Li # 35
    coordinates: [  0.376832017515258,  0.970188405419839,  0.602733158380297 ]
    mass: 6.940000
    reduced_to: 28
  - symbol: Li # 36
    coordinates: [  0.710165350848591,  0.970188405419839,  0.602733158380297 ]
    mass: 6.940000
    reduced_to: 28
  - symbol: Li # 37
    coordinates: [  0.018349317853308,  0.111334718821110,  0.451604560641747 ]
    mass: 6.940000
    reduced_to: 37
  - symbol: Li # 38
    coordinates: [  0.351682651186642,  0.111334718821110,  0.451604560641747 ]
    mass: 6.940000
    reduced_to: 37
  - symbol: Li # 39
    coordinates: [  0.685015984519975,  0.111334718821110,  0.451604560641747 ]
    mass: 6.940000
    reduced_to: 37
  - symbol: Li # 40
    coordinates: [  0.018349317853308,  0.444668052154444,  0.451604560641747 ]
    mass: 6.940000
    reduced_to: 37
  - symbol: Li # 41
    coordinates: [  0.351682651186642,  0.444668052154444,  0.451604560641747 ]
    mass: 6.940000
    reduced_to: 37
  - symbol: Li # 42
    coordinates: [  0.685015984519975,  0.444668052154444,  0.451604560641747 ]
    mass: 6.940000
    reduced_to: 37
  - symbol: Li # 43
    coordinates: [  0.018349317853308,  0.778001385487777,  0.451604560641747 ]
    mass: 6.940000
    reduced_to: 37
  - symbol: Li # 44
    coordinates: [  0.351682651186642,  0.778001385487777,  0.451604560641747 ]
    mass: 6.940000
    reduced_to: 37
  - symbol: Li # 45
    coordinates: [  0.685015984519975,  0.778001385487777,  0.451604560641747 ]
    mass: 6.940000
    reduced_to: 37
  - symbol: Li # 46
    coordinates: [  0.235366243739481,  0.328841634535835,  0.754517174769986 ]
    mass: 6.940000
    reduced_to: 46
  - symbol: Li # 47
    coordinates: [  0.568699577072815,  0.328841634535835,  0.754517174769986 ]
    mass: 6.940000
    reduced_to: 46
  - symbol: Li # 48
    coordinates: [  0.902032910406148,  0.328841634535835,  0.754517174769986 ]
    mass: 6.940000
    reduced_to: 46
  - symbol: Li # 49
    coordinates: [  0.235366243739481,  0.662174967869169,  0.754517174769986 ]
    mass: 6.940000
    reduced_to: 46
  - symbol: Li # 50
    coordinates: [  0.568699577072815,  0.662174967869169,  0.754517174769986 ]
    mass: 6.940000
    reduced_to: 46
  - symbol: Li # 51
    coordinates: [  0.902032910406148,  0.662174967869169,  0.754517174769986 ]
    mass: 6.940000
    reduced_to: 46
  - symbol: Li # 52
    coordinates: [  0.235366243739481,  0.995508301202502,  0.754517174769986 ]
    mass: 6.940000
    reduced_to: 46
  - symbol: Li # 53
    coordinates: [  0.568699577072815,  0.995508301202502,  0.754517174769986 ]
    mass: 6.940000
    reduced_to: 46
  - symbol: Li # 54
    coordinates: [  0.902032910406148,  0.995508301202502,  0.754517174769986 ]
    mass: 6.940000
    reduced_to: 46
  - symbol: Ga # 55
    coordinates: [  0.067185820339255,  0.160812290449699,  0.745904839878426 ]
    mass: 69.723000
    reduced_to: 55
  - symbol: Ga # 56
    coordinates: [  0.400519153672588,  0.160812290449699,  0.745904839878426 ]
    mass: 69.723000
    reduced_to: 55
  - symbol: Ga # 57
    coordinates: [  0.733852487005921,  0.160812290449699,  0.745904839878426 ]
    mass: 69.723000
    reduced_to: 55
  - symbol: Ga # 58
    coordinates: [  0.067185820339255,  0.494145623783032,  0.745904839878426 ]
    mass: 69.723000
    reduced_to: 55
  - symbol: Ga # 59
    coordinates: [  0.400519153672588,  0.494145623783032,  0.745904839878426 ]
    mass: 69.723000
    reduced_to: 55
  - symbol: Ga # 60
    coordinates: [  0.733852487005921,  0.494145623783032,  0.745904839878426 ]
    mass: 69.723000
    reduced_to: 55
  - symbol: Ga # 61
    coordinates: [  0.067185820339255,  0.827478957116366,  0.745904839878426 ]
    mass: 69.723000
    reduced_to: 55
  - symbol: Ga # 62
    coordinates: [  0.400519153672588,  0.827478957116366,  0.745904839878426 ]
    mass: 69.723000
    reduced_to: 55
  - symbol: Ga # 63
    coordinates: [  0.733852487005921,  0.827478957116366,  0.745904839878426 ]
    mass: 69.723000
    reduced_to: 55
  - symbol: Ga # 64
    coordinates: [  0.210200125776556,  0.136632388884406,  0.603226117671692 ]
    mass: 69.723000
    reduced_to: 64
  - symbol: Ga # 65
    coordinates: [  0.543533459109890,  0.136632388884406,  0.603226117671692 ]
    mass: 69.723000
    reduced_to: 64
  - symbol: Ga # 66
    coordinates: [  0.876866792443223,  0.136632388884406,  0.603226117671692 ]
    mass: 69.723000
    reduced_to: 64
  - symbol: Ga # 67
    coordinates: [  0.210200125776556,  0.469965722217739,  0.603226117671692 ]
    mass: 69.723000
    reduced_to: 64
  - symbol: Ga # 68
    coordinates: [  0.543533459109890,  0.469965722217739,  0.603226117671692 ]
    mass: 69.723000
    reduced_to: 64
  - symbol: Ga # 69
    coordinates: [  0.876866792443223,  0.469965722217739,  0.603226117671692 ]
    mass: 69.723000
    reduced_to: 64
  - symbol: Ga # 70
    coordinates: [  0.210200125776556,  0.803299055551073,  0.603226117671692 ]
    mass: 69.723000
    reduced_to: 64
  - symbol: Ga # 71
    coordinates: [  0.543533459109890,  0.803299055551073,  0.603226117671692 ]
    mass: 69.723000
    reduced_to: 64
  - symbol: Ga # 72
    coordinates: [  0.876866792443223,  0.803299055551073,  0.603226117671692 ]
    mass: 69.723000
    reduced_to: 64
  - symbol: Ga # 73
    coordinates: [  0.293171856074174,  0.053256638802993,  0.102160283570483 ]
    mass: 69.723000
    reduced_to: 73
  - symbol: Ga # 74
    coordinates: [  0.626505189407507,  0.053256638802993,  0.102160283570483 ]
    mass: 69.723000
    reduced_to: 73
  - symbol: Ga # 75
    coordinates: [  0.959838522740841,  0.053256638802993,  0.102160283570483 ]
    mass: 69.723000
    reduced_to: 73
  - symbol: Ga # 76
    coordinates: [  0.293171856074174,  0.386589972136326,  0.102160283570483 ]
    mass: 69.723000
    reduced_to: 73
  - symbol: Ga # 77
    coordinates: [  0.626505189407507,  0.386589972136326,  0.102160283570483 ]
    mass: 69.723000
    reduced_to: 73
  - symbol: Ga # 78
    coordinates: [  0.959838522740841,  0.386589972136326,  0.102160283570483 ]
    mass: 69.723000
    reduced_to: 73
  - symbol: Ga # 79
    coordinates: [  0.293171856074174,  0.719923305469660,  0.102160283570483 ]
    mass: 69.723000
    reduced_to: 73
  - symbol: Ga # 80
    coordinates: [  0.626505189407507,  0.719923305469660,  0.102160283570483 ]
    mass: 69.723000
    reduced_to: 73
  - symbol: Ga # 81
    coordinates: [  0.959838522740841,  0.719923305469660,  0.102160283570483 ]
    mass: 69.723000
    reduced_to: 73
  - symbol: Ga # 82
    coordinates: [  0.186411077612397,  0.279179062759365,  0.459936434076342 ]
    mass: 69.723000
    reduced_to: 82
  - symbol: Ga # 83
    coordinates: [  0.519744410945730,  0.279179062759365,  0.459936434076342 ]
    mass: 69.723000
    reduced_to: 82
  - symbol: Ga # 84
    coordinates: [  0.853077744279064,  0.279179062759365,  0.459936434076342 ]
    mass: 69.723000
    reduced_to: 82
  - symbol: Ga # 85
    coordinates: [  0.186411077612397,  0.612512396092698,  0.459936434076342 ]
    mass: 69.723000
    reduced_to: 82
  - symbol: Ga # 86
    coordinates: [  0.519744410945730,  0.612512396092698,  0.459936434076342 ]
    mass: 69.723000
    reduced_to: 82
  - symbol: Ga # 87
    coordinates: [  0.853077744279064,  0.612512396092698,  0.459936434076342 ]
    mass: 69.723000
    reduced_to: 82
  - symbol: Ga # 88
    coordinates: [  0.186411077612397,  0.945845729426032,  0.459936434076342 ]
    mass: 69.723000
    reduced_to: 82
  - symbol: Ga # 89
    coordinates: [  0.519744410945730,  0.945845729426032,  0.459936434076342 ]
    mass: 69.723000
    reduced_to: 82
  - symbol: Ga # 90
    coordinates: [  0.853077744279064,  0.945845729426032,  0.459936434076342 ]
    mass: 69.723000
    reduced_to: 82
  - symbol: Sn # 91
    coordinates: [  0.323469041938999,  0.249784730152920,  0.282716491843441 ]
    mass: 118.710000
    reduced_to: 91
  - symbol: Sn # 92
    coordinates: [  0.656802375272332,  0.249784730152920,  0.282716491843441 ]
    mass: 118.710000
    reduced_to: 91
  - symbol: Sn # 93
    coordinates: [  0.990135708605665,  0.249784730152920,  0.282716491843441 ]
    mass: 118.710000
    reduced_to: 91
  - symbol: Sn # 94
    coordinates: [  0.323469041938999,  0.583118063486254,  0.282716491843441 ]
    mass: 118.710000
    reduced_to: 91
  - symbol: Sn # 95
    coordinates: [  0.656802375272332,  0.583118063486254,  0.282716491843441 ]
    mass: 118.710000
    reduced_to: 91
  - symbol: Sn # 96
    coordinates: [  0.990135708605665,  0.583118063486254,  0.282716491843441 ]
    mass: 118.710000
    reduced_to: 91
  - symbol: Sn # 97
    coordinates: [  0.323469041938999,  0.916451396819587,  0.282716491843441 ]
    mass: 118.710000
    reduced_to: 91
  - symbol: Sn # 98
    coordinates: [  0.656802375272332,  0.916451396819587,  0.282716491843441 ]
    mass: 118.710000
    reduced_to: 91
  - symbol: Sn # 99
    coordinates: [  0.990135708605665,  0.916451396819587,  0.282716491843441 ]
    mass: 118.710000
    reduced_to: 91
  - symbol: Sn # 100
    coordinates: [  0.096718961523054,  0.023630272162529,  0.923317121591911 ]
    mass: 118.710000
    reduced_to: 100
  - symbol: Sn # 101
    coordinates: [  0.430052294856388,  0.023630272162529,  0.923317121591911 ]
    mass: 118.710000
    reduced_to: 100
  - symbol: Sn # 102
    coordinates: [  0.763385628189721,  0.023630272162529,  0.923317121591911 ]
    mass: 118.710000
    reduced_to: 100
  - symbol: Sn # 103
    coordinates: [  0.096718961523054,  0.356963605495862,  0.923317121591911 ]
    mass: 118.710000
    reduced_to: 100
  - symbol: Sn # 104
    coordinates: [  0.430052294856388,  0.356963605495862,  0.923317121591911 ]
    mass: 118.710000
    reduced_to: 100
  - symbol: Sn # 105
    coordinates: [  0.763385628189721,  0.356963605495862,  0.923317121591911 ]
    mass: 118.710000
    reduced_to: 100
  - symbol: Sn # 106
    coordinates: [  0.096718961523054,  0.690296938829196,  0.923317121591911 ]
    mass: 118.710000
    reduced_to: 100
  - symbol: Sn # 107
    coordinates: [  0.430052294856388,  0.690296938829196,  0.923317121591911 ]
    mass: 118.710000
    reduced_to: 100
  - symbol: Sn # 108
    coordinates: [  0.763385628189721,  0.690296938829196,  0.923317121591911 ]
    mass: 118.710000
    reduced_to: 100

displacements:
- atom:    1
  displacement:
    [   0.0100000000000000,  0.0000000000000000,  0.0000000000000000 ]
  forces:
  - [  -0.0150453411042690,  0.0005329353734851, -0.0035739494487643 ]
  - [  -0.0000408400082961,  0.0005340557545424, -0.0039641987532377 ]
  - [  -0.0000184111704584,  0.0005306405946612, -0.0031679458916187 ]
  - [   0.0001863384095486,  0.0005317563191056, -0.0035664429888129 ]
  - [  -0.0004471963329706,  0.0001715105026960, -0.0035618552938104 ]
  - [  -0.0004461699281819,  0.0008938834071159, -0.0035672672092915 ]
  - [   0.0001860287738964,  0.0005329493433237, -0.0035662893205881 ]
  - [  -0.0004472353321034,  0.0008940957486629, -0.0035629579797387 ]
  - [  -0.0004463312507141,  0.0001698974519968, -0.0035671545192599 ]
  - [   0.0020164614543319,  0.0005883192643523, -0.0150676118209958 ]
  - [   0.0004741465672851,  0.0005864324048162, -0.0135103864595294 ]
  - [   0.0019885208457708,  0.0005854042246938, -0.0120097221806645 ]
  - [   0.0004370305687189,  0.0005727633833885, -0.0134528232738376 ]
  - [   0.0004278067499399,  0.0005864473059773, -0.0135104805231094 ]
  - [   0.0004403612692840,  0.0005986997857690, -0.0135762430727482 ]
  - [   0.0004412224516273,  0.0005960783455521, -0.0134537424892187 ]
  - [   0.0004265867173672,  0.0005851316382177, -0.0135132223367691 ]
  - [   0.0004422969941515,  0.0005747092072852, -0.0135733606293797 ]
  - [   0.0017869365401566,  0.0018825962906703,  0.0218122974038124 ]
  - [   0.0015364831779152,  0.0018880832940340,  0.0217886716127396 ]
  - [   0.0015361870173365,  0.0018649079138413,  0.0218519512563944 ]
  - [   0.0017887097783387,  0.0018682780209929,  0.0218128152191639 ]
  - [   0.0015361172845587,  0.0018644498195499,  0.0217895694077015 ]
  - [   0.0015366594307125,  0.0018839603289962,  0.0218510031700134 ]
  - [   0.0016622100956738,  0.0018746412824839,  0.0218198690563440 ]
  - [   0.0016837227158248,  0.0018754820339382,  0.0218334607779980 ]
  - [   0.0016829462256283,  0.0018756210338324,  0.0218058954924345 ]
  - [  -0.0005377145134844, -0.0033598928712308,  0.0055654803290963 ]
  - [  -0.0005339771742001, -0.0033693308942020,  0.0056372592225671 ]
  - [  -0.0002290093980264, -0.0033522760495543,  0.0056041530333459 ]
  - [  -0.0004243855073582, -0.0033504152670503,  0.0056041157804430 ]
  - [  -0.0004260200657882, -0.0033697662875056,  0.0056087719276547 ]
  - [  -0.0004481351352297, -0.0033600423485041,  0.0055934237316251 ]
  - [  -0.0004280034045223, -0.0033689588308334,  0.0056030196137726 ]
  - [  -0.0004238691763021, -0.0033412638586015,  0.0055962055921555 ]
  - [  -0.0004463040968403, -0.0033676568418741,  0.0056029283441603 ]
  - [  -0.0011877572396770,  0.0015159267932177,  0.0430353879928589 ]
  - [  -0.0011926323641092,  0.0016299551352859,  0.0431074947118759 ]
  - [  -0.0011977904941887,  0.0015700405929238,  0.0430643670260906 ]
  - [  -0.0011889159213752,  0.0016258973628283,  0.0430329218506813 ]
  - [  -0.0011890851892531,  0.0015119574964046,  0.0431047007441521 ]
  - [  -0.0011969442712143,  0.0015737031353638,  0.0430697537958622 ]
  - [  -0.0011993119260296,  0.0015694946050644,  0.0430215597152710 ]
  - [  -0.0011991555802524,  0.0015731581952423,  0.0431199073791504 ]
  - [  -0.0012107221409678,  0.0015692794695497,  0.0430697910487652 ]
  - [  -0.0006603235378861, -0.0024362029507756, -0.0499724633991718 ]
  - [  -0.0006145108491182, -0.0024103103205562, -0.0499907620251179 ]
  - [  -0.0006710733287036, -0.0023854777682573, -0.0499417446553707 ]
  - [  -0.0006721382960677, -0.0024094304535538, -0.0499826036393642 ]
  - [  -0.0006825085729361, -0.0024156228173524, -0.0499744825065136 ]
  - [  -0.0006738019874319, -0.0024025498423725, -0.0499477982521057 ]
  - [  -0.0006639556959271, -0.0023840297944844, -0.0499743968248367 ]
  - [  -0.0006125150248408, -0.0024027321487665, -0.0499745160341263 ]
  - [  -0.0006670606089756, -0.0024405336007476, -0.0499568171799183 ]
  - [   0.0021251207217574, -0.0045671761035919,  0.1102799773216248 ]
  - [   0.0022549228742719, -0.0045495890080929,  0.1104071140289307 ]
  - [   0.0022521882783622, -0.0045577706769109,  0.1101068556308746 ]
  - [   0.0024338671937585, -0.0045485664159060,  0.1102814376354218 ]
  - [   0.0023073884658515, -0.0046404763124883,  0.1103150099515915 ]
  - [   0.0023046447895467, -0.0044842544011772,  0.1102010458707809 ]
  - [   0.0024332159664482, -0.0045604398474097,  0.1102627068758011 ]
  - [   0.0023058857768774, -0.0044861910864711,  0.1103349924087524 ]
  - [   0.0023068340960890, -0.0046338196843863,  0.1102008000016212 ]
  - [  -0.0009575916919857,  0.0020647377241403, -0.0099269906058908 ]
  - [  -0.0009639060590416,  0.0021254406310618, -0.0100432662293315 ]
  - [  -0.0009846950415522,  0.0020011649467051, -0.0099339429289103 ]
  - [  -0.0009549045353197,  0.0020661214366555, -0.0099725201725960 ]
  - [  -0.0009697980131023,  0.0020020501688123, -0.0100447665899992 ]
  - [  -0.0009809994371608,  0.0021256562322378, -0.0098910862579942 ]
  - [  -0.0009725142735988,  0.0020620725117624, -0.0099716484546661 ]
  - [  -0.0009605137165636,  0.0020642410963774, -0.0099648404866457 ]
  - [  -0.0009721253882162,  0.0020662937313318, -0.0099715990945697 ]
  - [   0.0031777494587004, -0.0041007571853697,  0.0180026069283485 ]
  - [   0.0014823641395196, -0.0024316729977727,  0.0183300971984863 ]
  - [   0.0031366483308375, -0.0008172463858500,  0.0186454057693481 ]
  - [   0.0031700215768069, -0.0007663315045647,  0.0180034264922142 ]
  - [   0.0014835756737739, -0.0024328373838216,  0.0183298587799072 ]
  - [   0.0031295120716095, -0.0040437229909003,  0.0186439640820026 ]
  - [   0.0015813480131328, -0.0024338550865650,  0.0183901563286781 ]
  - [   0.0016395940911025, -0.0024318534415215,  0.0183296781033278 ]
  - [   0.0015819848049432, -0.0024303984828293,  0.0182663016021252 ]
  - [  -0.0015931725502014,  0.0047867605462670, -0.1088138073682785 ]
  - [  -0.0019686101004481,  0.0047884499654174, -0.1090853512287140 ]
  - [  -0.0019731177017093,  0.0047813002020121, -0.1085544973611832 ]
  - [  -0.0018027815967798,  0.0047855400480330, -0.1088151186704636 ]
  - [  -0.0018935380503535,  0.0047673224471509, -0.1088469028472900 ]
  - [  -0.0019004443893209,  0.0048036770895123, -0.1087839975953102 ]
  - [  -0.0018051350489259,  0.0047850674018264, -0.1088107973337173 ]
  - [  -0.0018914276733994,  0.0048038447275758, -0.1088462173938751 ]
  - [  -0.0018999031744897,  0.0047689969651401, -0.1087893769145012 ]
  - [   0.0014792970614508,  0.0022648158483207, -0.0777086317539215 ]
  - [  -0.0020000515505672,  0.0022742962464690, -0.0826318934559822 ]
  - [   0.0014327745884657,  0.0022823931649327, -0.0874774307012558 ]
  - [  -0.0017103716963902,  0.0023942659609020, -0.0823936462402344 ]
  - [  -0.0016884695505723,  0.0022735930979252, -0.0826274305582047 ]
  - [  -0.0017094628419727,  0.0021527856588364, -0.0828628987073898 ]
  - [  -0.0017109184991568,  0.0021520203445107, -0.0823917984962463 ]
  - [  -0.0016869893297553,  0.0022748941555619, -0.0826274454593658 ]
  - [  -0.0017115734517574,  0.0023972429335117, -0.0828632190823555 ]
  - [   0.0004460711788852, -0.0009132679551840,  0.0693886578083038 ]
  - [   0.0012547508813441, -0.0010242671705782,  0.0691493600606918 ]
  - [   0.0012528859078884, -0.0008353563025594,  0.0695988908410072 ]
  - [   0.0004621248808689, -0.0009437240660191,  0.0693920478224754 ]
  - [   0.0012525881174952, -0.0008344650268555,  0.0691469162702560 ]
  - [   0.0012559413444251, -0.0010214718058705,  0.0695985108613968 ]
  - [   0.0009834088850766, -0.0009281095117331,  0.0693730786442757 ]
  - [   0.0009937593713403, -0.0009266752749681,  0.0693636685609818 ]
  - [   0.0009948993101716, -0.0009273914620280,  0.0693830698728561 ]
- atom:    1
  displacement:
    [  -0.0100000000000000,  0.0000000000000000,  0.0000000000000000 ]
  forces:
  - [   0.0148009788244963,  0.0005327966064215, -0.0036660218611360 ]
  - [  -0.0002247557276860,  0.0005313782021403, -0.0031680520623922 ]
  - [  -0.0002026341389865,  0.0005340864881873, -0.0039640627801418 ]
  - [  -0.0004305522597861,  0.0005322247743607, -0.0035646939650178 ]
  - [   0.0002029981114902,  0.0008936766535044, -0.0035677449777722 ]
  - [   0.0002044036809821,  0.0001703705638647, -0.0035615246742964 ]
  - [  -0.0004309378564358,  0.0005332184955478, -0.0035653337836266 ]
  - [   0.0002031383337453,  0.0001699319109321, -0.0035670446231961 ]
  - [   0.0002041356638074,  0.0008946992456913, -0.0035622864961624 ]
  - [  -0.0012126471847296,  0.0005854368209839, -0.0119947725906968 ]
  - [   0.0003076028078794,  0.0005868207663298, -0.0135169159621000 ]
  - [  -0.0012283989926800,  0.0005877101793885, -0.0150518715381622 ]
  - [   0.0003442894667387,  0.0005989801138639, -0.0135746393352747 ]
  - [   0.0003540255129337,  0.0005861250683665, -0.0135163590312004 ]
  - [   0.0003433440288063,  0.0005729822441936, -0.0134493112564087 ]
  - [   0.0003402102738619,  0.0005754067096859, -0.0135738691315055 ]
  - [   0.0003552949056029,  0.0005850736051798, -0.0135142803192139 ]
  - [   0.0003410115023144,  0.0005953966174275, -0.0134524870663881 ]
  - [   0.0015658824704587,  0.0018821083940566,  0.0218170844018459 ]
  - [   0.0018158874008805,  0.0018639431800693,  0.0218521617352962 ]
  - [   0.0018164806533605,  0.0018878011032939,  0.0217882189899683 ]
  - [   0.0015639287885278,  0.0018677986226976,  0.0218160971999168 ]
  - [   0.0018160745967180,  0.0018848978215829,  0.0218518581241369 ]
  - [   0.0018161474727094,  0.0018656397005543,  0.0217893123626709 ]
  - [   0.0016907746903598,  0.0018756320932880,  0.0218200646340847 ]
  - [   0.0016686995513737,  0.0018749784212559,  0.0218060649931431 ]
  - [   0.0016694120131433,  0.0018751837778836,  0.0218336097896099 ]
  - [  -0.0003276363422628, -0.0033607101067901,  0.0056402641348541 ]
  - [  -0.0003329471219331, -0.0033516967669129,  0.0055681294761598 ]
  - [  -0.0006360732950270, -0.0033690305426717,  0.0056014154106379 ]
  - [  -0.0004414051945787, -0.0033699886407703,  0.0056008961983025 ]
  - [  -0.0004401066398714, -0.0033506783656776,  0.0055952006950974 ]
  - [  -0.0004169935709797, -0.0033601967152208,  0.0056101889349520 ]
  - [  -0.0004376666329335, -0.0033494546078146,  0.0055985711514950 ]