# Thermal properties / unit cell (natom)

unit:
  temperature:   K
  free_energy:   kJ/mol
  entropy:       J/K/mol
  heat_capacity: J/K/mol

natom: 1    
cutoff_frequency: 0.00000
num_modes: 139968
num_integrated_modes: 139968

zero_point_energy:       0.8360414

thermal_properties:
- temperature:         0.0000000
  free_energy:         0.8360414
  entropy:             0.0000000
  heat_capacity:       0.0000000
  energy:              0.8360414

- temperature:        10.0000000
  free_energy:         0.8342196
  entropy:             0.8328593
  heat_capacity:       2.8239868
  energy:              0.8425482

- temperature:        20.0000000
  free_energy:         0.8052254
  entropy:             5.4210484
  heat_capacity:      11.1980271
  energy:              0.9136463

- temperature:        30.0000000
  free_energy:         0.7225280
  entropy:            11.1054212
  heat_capacity:      16.6689264
  energy:              1.0556906

- temperature:        40.0000000
  free_energy:         0.5847023
  entropy:            16.3508200
  heat_capacity:      19.6434737
  energy:              1.2387351

- temperature:        50.0000000
  free_energy:         0.3977530
  entropy:            20.9310598
  heat_capacity:      21.3209841
  energy:              1.4443060

- temperature:        60.0000000
  free_energy:         0.1680713
  entropy:            24.9149302
  heat_capacity:      22.3319284
  energy:              1.6629671

- temperature:        70.0000000
  free_energy:        -0.0989166
  entropy:            28.4095196
  heat_capacity:      22.9797647
  energy:              1.8897498

- temperature:        80.0000000
  free_energy:        -0.3988022
  entropy:            31.5083666
  heat_capacity:      23.4167976
  energy:              2.1218671

- temperature:        90.0000000
  free_energy:        -0.7280125
  entropy:            34.2852247
  heat_capacity:      23.7243195
  energy:              2.3576577

- temperature:       100.0000000
  free_energy:        -1.0836246
  entropy:            36.7970176
  heat_capacity:      23.9483552
  energy:              2.5960772

- temperature:       110.0000000
  free_energy:        -1.4632172
  entropy:            39.0877844
  heat_capacity:      24.1163498
  energy:              2.8364391

- temperature:       120.0000000
  free_energy:        -1.8647591
  entropy:            41.1919509
  heat_capacity:      24.2454170
  energy:              3.0782751

- temperature:       130.0000000
  free_energy:        -2.2865256
  entropy:            43.1367745
  heat_capacity:      24.3466448
  energy:              3.3212550

- temperature:       140.0000000
  free_energy:        -2.7270367
  entropy:            44.9441207
  heat_capacity:      24.4274586
  energy:              3.5651402

- temperature:       150.0000000
  free_energy:        -3.1850094
  entropy:            46.6317516
  heat_capacity:      24.4929753
  energy:              3.8097534

- temperature:       160.0000000
  free_energy:        -3.6593217
  entropy:            48.2142655
  heat_capacity:      24.5468101
  energy:              4.0549608

- temperature:       170.0000000
  free_energy:        -4.1489849
  entropy:            49.7037902
  heat_capacity:      24.5915738
  energy:              4.3006594

- temperature:       180.0000000
  free_energy:        -4.6531216
  entropy:            51.1105006
  heat_capacity:      24.6291892
  energy:              4.5467685

- temperature:       190.0000000
  free_energy:        -5.1709477
  entropy:            52.4430103
  heat_capacity:      24.6610968
  energy:              4.7932242

- temperature:       200.0000000
  free_energy:        -5.7017591
  entropy:            53.7086710
  heat_capacity:      24.6883924
  energy:              5.0399751

- temperature:       210.0000000
  free_energy:        -6.2449195
  entropy:            54.9138049
  heat_capacity:      24.7119220
  energy:              5.2869795

- temperature:       220.0000000
  free_energy:        -6.7998517
  entropy:            56.0638862
  heat_capacity:      24.7323461
  energy:              5.5342032

- temperature:       230.0000000
  free_energy:        -7.3660297
  entropy:            57.1636849
  heat_capacity:      24.7501872
  energy:              5.7816179

- temperature:       240.0000000
  free_energy:        -7.9429718
  entropy:            58.2173816
  heat_capacity:      24.7658624
  energy:              6.0291998

- temperature:       250.0000000
  free_energy:        -8.5302360
  entropy:            59.2286599
  heat_capacity:      24.7797078
  energy:              6.2769290

- temperature:       260.0000000
  free_energy:        -9.1274145
  entropy:            60.2007818
  heat_capacity:      24.7919973
  energy:              6.5247887

- temperature:       270.0000000
  free_energy:        -9.7341308
  entropy:            61.1366493
  heat_capacity:      24.8029551
  energy:              6.7727645

- temperature:       280.0000000
  free_energy:       -10.3500353
  entropy:            62.0388549
  heat_capacity:      24.8127667
  energy:              7.0208440

- temperature:       290.0000000
  free_energy:       -10.9748034
  entropy:            62.9097241
  heat_capacity:      24.8215863
  energy:              7.2690166

- temperature:       300.0000000
  free_energy:       -11.6081324
  entropy:            63.7513508
  heat_capacity:      24.8295432
  energy:              7.5172729

- temperature:       310.0000000
  free_energy:       -12.2497393
  entropy:            64.5656265
  heat_capacity:      24.8367461
  energy:              7.7656049

- temperature:       320.0000000
  free_energy:       -12.8993595
  entropy:            65.3542658
  heat_capacity:      24.8432873
  energy:              8.0140056

- temperature:       330.0000000
  free_energy:       -13.5567444
  entropy:            66.1188276
  heat_capacity:      24.8492454
  energy:              8.2624687

- temperature:       340.0000000
  free_energy:       -14.2216605
  entropy:            66.8607332
  heat_capacity:      24.8546876
  energy:              8.5109888

- temperature:       350.0000000
  free_energy:       -14.8938879
  entropy:            67.5812823
  heat_capacity:      24.8596717
  energy:              8.7595609

- temperature:       360.0000000
  free_energy:       -15.5732189
  entropy:            68.2816661
  heat_capacity:      24.8642477
  energy:              9.0081809

- temperature:       370.0000000
  free_energy:       -16.2594576
  entropy:            68.9629792
  heat_capacity:      24.8684589
  energy:              9.2568447

- temperature:       380.0000000
  free_energy:       -16.9524183
  entropy:            69.6262297
  heat_capacity:      24.8723431
  energy:              9.5055489

- temperature:       390.0000000
  free_energy:       -17.6519251
  entropy:            70.2723479
  heat_capacity:      24.8759332
  energy:              9.7542906

- temperature:       400.0000000
  free_energy:       -18.3578111
  entropy:            70.9021945
  heat_capacity:      24.8792582
  energy:             10.0030667

- temperature:       410.0000000
  free_energy:       -19.0699174
  entropy:            71.5165667
  heat_capacity:      24.8823436
  energy:             10.2518749

- temperature:       420.0000000
  free_energy:       -19.7880933
  entropy:            72.1162051
  heat_capacity:      24.8852118
  energy:             10.5007129

- temperature:       430.0000000
  free_energy:       -20.5121947
  entropy:            72.7017982
  heat_capacity:      24.8878826
  energy:             10.7495785

- temperature:       440.0000000
  free_energy:       -21.2420846
  entropy:            73.2739875
  heat_capacity:      24.8903739
  energy:             10.9984699

- temperature:       450.0000000
  free_energy:       -21.9776318
  entropy:            73.8333716
  heat_capacity:      24.8927013
  energy:             11.2473854

- temperature:       460.0000000
  free_energy:       -22.7187112
  entropy:            74.3805101
  heat_capacity:      24.8948789
  energy:             11.4963235

- temperature:       470.0000000
  free_energy:       -23.4652029
  entropy:            74.9159266
  heat_capacity:      24.8969193
  energy:             11.7452826

- temperature:       480.0000000
  free_energy:       -24.2169923
  entropy:            75.4401119
  heat_capacity:      24.8988337
  energy:             11.9942614

- temperature:       490.0000000
  free_energy:       -24.9739693
  entropy:            75.9535268
  heat_capacity:      24.9006324
  energy:             12.2432588

- temperature:       500.0000000
  free_energy:       -25.7360284
  entropy:            76.4566042
  heat_capacity:      24.9023244
  energy:             12.4922737

- temperature:       510.0000000
  free_energy:       -26.5030683
  entropy:            76.9497515
  heat_capacity:      24.9039180
  energy:             12.7413050

- temperature:       520.0000000
  free_energy:       -27.2749916
  entropy:            77.4333526
  heat_capacity:      24.9054207
  energy:             12.9903518

- temperature:       530.0000000
  free_energy:       -28.0517047
  entropy:            77.9077695
  heat_capacity:      24.9068393
  energy:             13.2394131

- temperature:       540.0000000
  free_energy:       -28.8331175
  entropy:            78.3733441
  heat_capacity:      24.9081800
  energy:             13.4884883

- temperature:       550.0000000
  free_energy:       -29.6191432
  entropy:            78.8303994
  heat_capacity:      24.9094483
  energy:             13.7375765

- temperature:       560.0000000
  free_energy:       -30.4096981
  entropy:            79.2792413
  heat_capacity:      24.9106493
  energy:             13.9866770

- temperature:       570.0000000
  free_energy:       -31.2047016
  entropy:            79.7201594
  heat_capacity:      24.9117878
  energy:             14.2357893

- temperature:       580.0000000
  free_energy:       -32.0040758
  entropy:            80.1534283
  heat_capacity:      24.9128680
  energy:             14.4849126

- temperature:       590.0000000
  free_energy:       -32.8077455
  entropy:            80.5793085
  heat_capacity:      24.9138938
  energy:             14.7340465

- temperature:       600.0000000
  free_energy:       -33.6156382
  entropy:            80.9980475
  heat_capacity:      24.9148688
  energy:             14.9831903

- temperature:       610.0000000
  free_energy:       -34.4276835
  entropy:            81.4098806
  heat_capacity:      24.9157963
  energy:             15.2323437

- temperature:       620.0000000
  free_energy:       -35.2438135
  entropy:            81.8150316
  heat_capacity:      24.9166794
  energy:             15.4815061

- temperature:       630.0000000
  free_energy:       -36.0639625
  entropy:            82.2137138
  heat_capacity:      24.9175207
  energy:             15.7306771

- temperature:       640.0000000
  free_energy:       -36.8880669
  entropy:            82.6061301
  heat_capacity:      24.9183230
  energy:             15.9798564

- temperature:       650.0000000
  free_energy:       -37.7160649
  entropy:            82.9924744
  heat_capacity:      24.9190886
  energy:             16.2290435

- temperature:       660.0000000
  free_energy:       -38.5478968
  entropy:            83.3729315
  heat_capacity:      24.9198197
  energy:             16.4782380

- temperature:       670.0000000
  free_energy:       -39.3835045
  entropy:            83.7476780
  heat_capacity:      24.9205183
  energy:             16.7274397

- temperature:       680.0000000
  free_energy:       -40.2228319
  entropy:            84.1168826
  heat_capacity:      24.9211864
  energy:             16.9766483

- temperature:       690.0000000
  free_energy:       -41.0658242
  entropy:            84.4807067
  heat_capacity:      24.9218256
  energy:             17.2258634

- temperature:       700.0000000
  free_energy:       -41.9124286
  entropy:            84.8393047
  heat_capacity:      24.9224377
  energy:             17.4750847

- temperature:       710.0000000
  free_energy:       -42.7625934
  entropy:            85.1928246
  heat_capacity:      24.9230241
  energy:             17.7243120

- temperature:       720.0000000
  free_energy:       -43.6162686
  entropy:            85.5414079
  heat_capacity:      24.9235863
  energy:             17.9735451

- temperature:       730.0000000
  free_energy:       -44.4734055
  entropy:            85.8851907
  heat_capacity:      24.9241256
  energy:             18.2227837

- temperature:       740.0000000
  free_energy:       -45.3339569
  entropy:            86.2243033
  heat_capacity:      24.9246431
  energy:             18.4720276

- temperature:       750.0000000
  free_energy:       -46.1978765
  entropy:            86.5588706
  heat_capacity:      24.9251402
  energy:             18.7212765

- temperature:       760.0000000
  free_energy:       -47.0651195
  entropy:            86.8890129
  heat_capacity:      24.9256177
  energy:             18.9705303

- temperature:       770.0000000
  free_energy:       -47.9356424
  entropy:            87.2148456
  heat_capacity:      24.9260768
  energy:             19.2197888

- temperature:       780.0000000
  free_energy:       -48.8094024
  entropy:            87.5364798
  heat_capacity:      24.9265183
  energy:             19.4690518

- temperature:       790.0000000
  free_energy:       -49.6863583
  entropy:            87.8540220
  heat_capacity:      24.9269432
  energy:             19.7183191

- temperature:       800.0000000
  free_energy:       -50.5664696
  entropy:            88.1675752
  heat_capacity:      24.9273522
  energy:             19.9675906

- temperature:       810.0000000
  free_energy:       -51.4496968
  entropy:            88.4772382
  heat_capacity:      24.9277463
  energy:             20.2168661

- temperature:       820.0000000
  free_energy:       -52.3360017
  entropy:            88.7831063
  heat_capacity:      24.9281260
  energy:             20.4661455

- temperature:       830.0000000
  free_energy:       -53.2253466
  entropy:            89.0852713
  heat_capacity:      24.9284920
  energy:             20.7154286

- temperature:       840.0000000
  free_energy:       -54.1176951
  entropy:            89.3838218
  heat_capacity:      24.9288451
  energy:             20.9647153

- temperature:       850.0000000
  free_energy:       -55.0130113
  entropy:            89.6788432
  heat_capacity:      24.9291858
  energy:             21.2140054

- temperature:       860.0000000
  free_energy:       -55.9112604
  entropy:            89.9704179
  heat_capacity:      24.9295147
  energy:             21.4632989

- temperature:       870.0000000
  free_energy:       -56.8124084
  entropy:            90.2586254
  heat_capacity:      24.9298323
  energy:             21.7125957

- temperature:       880.0000000
  free_energy:       -57.7164220
  entropy:            90.5435427
  heat_capacity:      24.9301392
  energy:             21.9618955

- temperature:       890.0000000
  free_energy:       -58.6232686
  entropy:            90.8252438
  heat_capacity:      24.9304358
  energy:             22.2111984

- temperature:       900.0000000
  free_energy:       -59.5329164
  entropy:            91.1038007
  heat_capacity:      24.9307225
  energy:             22.4605042

- temperature:       910.0000000
  free_energy:       -60.4453343
  entropy:            91.3792826
  heat_capacity:      24.9309999
  energy:             22.7098128

- temperature:       920.0000000
  free_energy:       -61.3604920
  entropy:            91.6517567
  heat_capacity:      24.9312683
  energy:             22.9591242

- temperature:       930.0000000
  free_energy:       -62.2783597
  entropy:            91.9212880
  heat_capacity:      24.9315280
  energy:             23.2084382

- temperature:       940.0000000
  free_energy:       -63.1989082
  entropy:            92.1879393
  heat_capacity:      24.9317796
  energy:             23.4577547

- temperature:       950.0000000
  free_energy:       -64.1221090
  entropy:            92.4517714
  heat_capacity:      24.9320232
  energy:             23.7070738

- temperature:       960.0000000
  free_energy:       -65.0479344
  entropy:            92.7128433
  heat_capacity:      24.9322593
  energy:             23.9563952

- temperature:       970.0000000
  free_energy:       -65.9763569
  entropy:            92.9712122
  heat_capacity:      24.9324880
  energy:             24.2057189

- temperature:       980.0000000
  free_energy:       -66.9073498
  entropy:            93.2269334
  heat_capacity:      24.9327099
  energy:             24.4550449

- temperature:       990.0000000
  free_energy:       -67.8408869
  entropy:            93.4800606
  heat_capacity:      24.9329250
  energy:             24.7043731

- temperature:      1000.0000000
  free_energy:       -68.7769426
  entropy:            93.7306459
  heat_capacity:      24.9331338
  energy:             24.9537034
