phonopy:
  version: "2.37.1"
  frequency_unit_conversion_factor: 15.633302
  symmetry_tolerance: 1.00000e-05

space_group:
  type: "Immm"
  number: 71
  Hall_symbol: "-I 2 2"

primitive_matrix:
- [ -1.000000000000000,  0.000000000000000,  0.000000000000000 ]
- [ -1.000000000000000,  0.000000000000000,  1.000000000000000 ]
- [ -1.000000000000000,  1.000000000000000,  0.000000000000000 ]

supercell_matrix:
- [   3,   0,   0 ]
- [   0,   3,   0 ]
- [   0,   0,   3 ]

primitive_cell:
  lattice:
  - [    -1.623584719159060,    -1.401559437461188,    -2.562546148143655 ] # a
  - [    -1.046844160163151,    -1.872034626608227,     2.562546148143655 ] # b
  - [    -0.671283129801954,     3.273594064069415,     0.000000000000000 ] # c
  points:
  - symbol: Sn # 1
    coordinates: [  0.000000000000000,  0.000000000000000,  0.000000000000000 ]
    mass: 118.710000
  reciprocal_lattice: # without 2pi
  - [    -0.299247809885955,    -0.061363749589926,    -0.167076361368842 ] # a*
  - [    -0.299247809885955,    -0.061363749589926,     0.223160513281948 ] # b*
  - [    -0.299247809885955,     0.244110900115694,     0.056084155062912 ] # c*

unit_cell:
  lattice:
  - [     3.341712009124165,     0.000000000000000,     0.000000000000000 ] # a
  - [    -0.671283129801954,     3.273594064069415,     0.000000000000000 ] # b
  - [    -1.046844160163151,    -1.872034626608227,     2.562546148143655 ] # c
  points:
  - symbol: Sn # 1
    coordinates: [  0.000000000000000,  0.000000000000000,  0.000000000000000 ]
    mass: 118.710000
    reduced_to: 1

supercell:
  lattice:
  - [    10.025136027372495,     0.000000000000000,     0.000000000000000 ] # a
  - [    -2.013849389405861,     9.820782192208245,     0.000000000000000 ] # b
  - [    -3.140532480489454,    -5.616103879824681,     7.687638444430965 ] # c
  points:
  - symbol: Sn # 1
    coordinates: [  0.000000000000000,  0.000000000000000,  0.000000000000000 ]
    mass: 118.710000
    reduced_to: 1
  - symbol: Sn # 2
    coordinates: [  0.333333333333333,  0.000000000000000,  0.000000000000000 ]
    mass: 118.710000
    reduced_to: 1
  - symbol: Sn # 3
    coordinates: [  0.666666666666667,  0.000000000000000,  0.000000000000000 ]
    mass: 118.710000
    reduced_to: 1
  - symbol: Sn # 4
    coordinates: [  0.000000000000000,  0.333333333333333,  0.000000000000000 ]
    mass: 118.710000
    reduced_to: 1
  - symbol: Sn # 5
    coordinates: [  0.333333333333333,  0.333333333333333,  0.000000000000000 ]
    mass: 118.710000
    reduced_to: 1
  - symbol: Sn # 6
    coordinates: [  0.666666666666667,  0.333333333333333,  0.000000000000000 ]
    mass: 118.710000
    reduced_to: 1
  - symbol: Sn # 7
    coordinates: [  0.000000000000000,  0.666666666666667,  0.000000000000000 ]
    mass: 118.710000
    reduced_to: 1
  - symbol: Sn # 8
    coordinates: [  0.333333333333333,  0.666666666666667,  0.000000000000000 ]
    mass: 118.710000
    reduced_to: 1
  - symbol: Sn # 9
    coordinates: [  0.666666666666667,  0.666666666666667,  0.000000000000000 ]
    mass: 118.710000
    reduced_to: 1
  - symbol: Sn # 10
    coordinates: [  0.000000000000000,  0.000000000000000,  0.333333333333333 ]
    mass: 118.710000
    reduced_to: 1
  - symbol: Sn # 11
    coordinates: [  0.333333333333333,  0.000000000000000,  0.333333333333333 ]
    mass: 118.710000
    reduced_to: 1
  - symbol: Sn # 12
    coordinates: [  0.666666666666667,  0.000000000000000,  0.333333333333333 ]
    mass: 118.710000
    reduced_to: 1
  - symbol: Sn # 13
    coordinates: [  0.000000000000000,  0.333333333333333,  0.333333333333333 ]
    mass: 118.710000
    reduced_to: 1
  - symbol: Sn # 14
    coordinates: [  0.333333333333333,  0.333333333333333,  0.333333333333333 ]
    mass: 118.710000
    reduced_to: 1
  - symbol: Sn # 15
    coordinates: [  0.666666666666667,  0.333333333333333,  0.333333333333333 ]
    mass: 118.710000
    reduced_to: 1
  - symbol: Sn # 16
    coordinates: [  0.000000000000000,  0.666666666666667,  0.333333333333333 ]
    mass: 118.710000
    reduced_to: 1
  - symbol: Sn # 17
    coordinates: [  0.333333333333333,  0.666666666666667,  0.333333333333333 ]
    mass: 118.710000
    reduced_to: 1
  - symbol: Sn # 18
    coordinates: [  0.666666666666667,  0.666666666666667,  0.333333333333333 ]
    mass: 118.710000
    reduced_to: 1
  - symbol: Sn # 19
    coordinates: [  0.000000000000000,  0.000000000000000,  0.666666666666667 ]
    mass: 118.710000
    reduced_to: 1
  - symbol: Sn # 20
    coordinates: [  0.333333333333333,  0.000000000000000,  0.666666666666667 ]
    mass: 118.710000
    reduced_to: 1
  - symbol: Sn # 21
    coordinates: [  0.666666666666667,  0.000000000000000,  0.666666666666667 ]
    mass: 118.710000
    reduced_to: 1
  - symbol: Sn # 22
    coordinates: [  0.000000000000000,  0.333333333333333,  0.666666666666667 ]
    mass: 118.710000
    reduced_to: 1
  - symbol: Sn # 23
    coordinates: [  0.333333333333333,  0.333333333333333,  0.666666666666667 ]
    mass: 118.710000
    reduced_to: 1
  - symbol: Sn # 24
    coordinates: [  0.666666666666667,  0.333333333333333,  0.666666666666667 ]
    mass: 118.710000
    reduced_to: 1
  - symbol: Sn # 25
    coordinates: [  0.000000000000000,  0.666666666666667,  0.666666666666667 ]
    mass: 118.710000
    reduced_to: 1
  - symbol: Sn # 26
    coordinates: [  0.333333333333333,  0.666666666666667,  0.666666666666667 ]
    mass: 118.710000
    reduced_to: 1
  - symbol: Sn # 27
    coordinates: [  0.666666666666667,  0.666666666666667,  0.666666666666667 ]
    mass: 118.710000
    reduced_to: 1

displacements:
- atom:    1
  displacement:
    [   0.0100000000000000,  0.0000000000000000,  0.0000000000000000 ]
  forces:
  - [  -0.0131688071414828, -0.0001520328223705, -0.0002766195684671 ]
  - [   0.0048975348472595,  0.0000119438045658,  0.0002550641074777 ]
  - [   0.0046767676249146,  0.0000102818012238,  0.0002586375921965 ]
  - [  -0.0007382256444544, -0.0011141740251333, -0.0004439356271178 ]
  - [   0.0010548979043961, -0.0001956336200237,  0.0001888924743980 ]
  - [   0.0000339327380061,  0.0012546237558126, -0.0000274321064353 ]
  - [  -0.0007434594444931, -0.0011297831078991, -0.0004394140560180 ]
  - [   0.0000285366550088,  0.0012571447296068, -0.0000258963555098 ]
  - [   0.0010313298553228, -0.0002314131706953,  0.0001861155033112 ]
  - [  -0.0007292749360204,  0.0007317187264562, -0.0014529249165207 ]
  - [   0.0013244533911347,  0.0000420119613409,  0.0003383189905435 ]
  - [  -0.0002187415957451, -0.0007616803050041,  0.0009643773082644 ]
  - [   0.0010561291128397, -0.0012206005631015, -0.0022106030955911 ]
  - [   0.0011421814560890,  0.0011426694691181,  0.0019966438412666 ]
  - [  -0.0013635698705912, -0.0001519471406937, -0.0001786518841982 ]
  - [  -0.0004602787084877,  0.0000393914524466,  0.0003471511881799 ]
  - [   0.0003503444604576, -0.0006433110684156,  0.0005387074779719 ]
  - [   0.0003955382853746,  0.0009605670347810, -0.0000955790746957 ]
  - [  -0.0007403939962387,  0.0007511062431149, -0.0014764028601348 ]
  - [  -0.0002260669134557, -0.0007633094210178,  0.0009645409882069 ]
  - [   0.0012969486415386,  0.0000797447573859,  0.0002879574894905 ]
  - [  -0.0004556886851788,  0.0000501312315464,  0.0003380097914487 ]
  - [   0.0003986908122897,  0.0009569227695465, -0.0000971201807261 ]
  - [   0.0003471178933978, -0.0006492175161839,  0.0005359735805541 ]
  - [   0.0010526813566685, -0.0012485176557675, -0.0022610598243773 ]
  - [  -0.0013657584786415, -0.0001315734698437, -0.0001448637340218 ]
  - [   0.0011231712996960,  0.0011049229651690,  0.0019300610292703 ]

force_constants:
  format: "full"
  shape: [ 27, 27 ]
  elements:
  - # (1, 1)
    - [     1.316880680715505,     0.015203233432590,     0.027661765147740 ]
    - [     0.015203233432590,     1.323115830378189,    -0.022565038272118 ]
    - [     0.027661765147740,    -0.022565038272118,     1.294110093718583 ]
  - # (1, 2)
    - [    -0.478681586286186,    -0.001126438657298,    -0.025720047045687 ]
    - [    -0.001126438336294,     0.096834828222701,    -0.050409159209273 ]
    - [    -0.025720049299975,    -0.050409158807899,     0.059126205317878 ]
  - # (1, 3)
    - [    -0.478681586286186,    -0.001126438657298,    -0.025720047045687 ]
    - [    -0.001126438336294,     0.096834828222701,    -0.050409159209273 ]
    - [    -0.025720049299975,    -0.050409158807899,     0.059126205317878 ]
  - # (1, 4)
    - [     0.074054475449513,     0.112217606411552,     0.044214969076461 ]
    - [     0.112217606536257,    -0.455901234235393,     0.035321956196480 ]
    - [     0.044214969111944,     0.035321956222561,     0.059126206406456 ]
  - # (1, 5)
    - [    -0.104311421505774,     0.021352290496469,    -0.018750591074334 ]
    - [     0.021352290573484,    -0.095554421129185,     0.015295763687315 ]
    - [    -0.018750591075410,     0.015295763774982,    -0.114701153883128 ]
  - # (1, 6)
    - [    -0.003155990634333,    -0.125628298504447,     0.002727982176917 ]
    - [    -0.125628298396929,    -0.054678663024214,    -0.002225347625103 ]
    - [     0.002727982364471,    -0.002225347505159,     0.036192588667863 ]
  - # (1, 7)
    - [     0.074054475449513,     0.112217606411552,     0.044214969076461 ]
    - [     0.112217606536257,    -0.455901234235393,     0.035321956196480 ]
    - [     0.044214969111944,     0.035321956222561,     0.059126206406456 ]
  - # (1, 8)
    - [    -0.003155990634333,    -0.125628298504447,     0.002727982176917 ]
    - [    -0.125628298396929,    -0.054678663024214,    -0.002225347625103 ]
    - [     0.002727982364471,    -0.002225347505159,     0.036192588667863 ]
  - # (1, 9)
    - [    -0.104311421505774,     0.021352290496469,    -0.018750591074334 ]
    - [     0.021352290573484,    -0.095554421129185,     0.015295763687315 ]
    - [    -0.018750591075410,     0.015295763774982,    -0.114701153883128 ]
  - # (1, 10)
    - [     0.073453793444036,    -0.074120923634125,     0.146511577654447 ]
    - [    -0.074120923958782,    -0.151490826057112,     0.230524007362951 ]
    - [     0.146511580271549,     0.230524008857193,    -0.244683520688054 ]
  - # (1, 11)
    - [    -0.131070135425185,    -0.006087884936215,    -0.031314016420016 ]
    - [    -0.006087884845926,    -0.133566898776610,     0.025544356543990 ]
    - [    -0.031314016346078,     0.025544356667840,    -0.114366389341679 ]
  - # (1, 12)
    - [     0.022251003461249,     0.076295935829381,    -0.096393964867139 ]
    - [     0.076295935413998,    -0.005995771520968,     0.035139047739284 ]
    - [    -0.096393964299668,     0.035139048087621,    -0.035629621140855 ]
  - # (1, 13)
    - [    -0.105440556981720,     0.123455863213253,     0.223582956724874 ]
    - [     0.123455863235355,    -0.054808841639231,    -0.182387420997602 ]
    - [     0.223582956598450,    -0.182387420870044,    -0.289956004835942 ]
  - # (1, 14)
    - [    -0.113241877660681,    -0.112404733549230,    -0.196393726777722 ]
    - [    -0.112404733333133,     0.035204847014349,    -0.189832728858082 ]
    - [    -0.196393727741232,    -0.189832730563194,    -0.244683526118536 ]
  - # (1, 15)
    - [     0.136436600485371,     0.014139985937447,     0.016252986234392 ]
    - [     0.014139986030582,     0.047817159860283,     0.038382942241736 ]
    - [     0.016252986615843,     0.038382941995297,     0.090565061778275 ]
  - # (1, 16)
    - [     0.045828119320814,    -0.004440187200983,    -0.034335638513231 ]
    - [    -0.004440187029794,     0.138425641203732,    -0.023632048067698 ]
    - [    -0.034335638482110,    -0.023632048031807,     0.090565060996436 ]
  - # (1, 17)
    - [    -0.034883763441716,     0.064579881400450,    -0.053786388249101 ]
    - [     0.064579881526658,     0.051138995042792,     0.087370324724124 ]
    - [    -0.053786388311754,     0.087370324779097,    -0.035629620446684 ]
  - # (1, 18)
    - [    -0.039679000583142,    -0.095834713522548,     0.009573018506269 ]
    - [    -0.095834714131770,    -0.078982730150236,    -0.007809174602063 ]
    - [     0.009573018020099,    -0.007809175470431,     0.097019666428679 ]
  - # (1, 19)
    - [     0.073453793444036,    -0.074120923634125,     0.146511577654447 ]
    - [    -0.074120923958782,    -0.151490826057112,     0.230524007362951 ]
    - [     0.146511580271549,     0.230524008857193,    -0.244683520688054 ]
  - # (1, 20)
    - [     0.022251003461249,     0.076295935829381,    -0.096393964867139 ]
    - [     0.076295935413998,    -0.005995771520968,     0.035139047739284 ]
    - [    -0.096393964299668,     0.035139048087621,    -0.035629621140855 ]
  - # (1, 21)
    - [    -0.131070135425185,    -0.006087884936215,    -0.031314016420016 ]
    - [    -0.006087884845926,    -0.133566898776610,     0.025544356543990 ]
    - [    -0.031314016346078,     0.025544356667840,    -0.114366389341679 ]
  - # (1, 22)
    - [     0.045828119320814,    -0.004440187200983,    -0.034335638513231 ]
    - [    -0.004440187029794,     0.138425641203732,    -0.023632048067698 ]
    - [    -0.034335638482110,    -0.023632048031807,     0.090565060996436 ]
  - # (1, 23)
    - [    -0.039679000583142,    -0.095834713522548,     0.009573018506269 ]
    - [    -0.095834714131770,    -0.078982730150236,    -0.007809174602063 ]
    - [     0.009573018020099,    -0.007809175470431,     0.097019666428679 ]
  - # (1, 24)
    - [    -0.034883763441716,     0.064579881400450,    -0.053786388249101 ]
    - [     0.064579881526658,     0.051138995042792,     0.087370324724124 ]
    - [    -0.053786388311754,     0.087370324779097,    -0.035629620446684 ]
  - # (1, 25)
    - [    -0.105440556981720,     0.123455863213253,     0.223582956724874 ]
    - [     0.123455863235355,    -0.054808841639231,    -0.182387420997602 ]
    - [     0.223582956598450,    -0.182387420870044,    -0.289956004835942 ]
  - # (1, 26)
    - [     0.136436600485371,     0.014139985937447,     0.016252986234392 ]
    - [     0.014139986030582,     0.047817159860283,     0.038382942241736 ]
    - [     0.016252986615843,     0.038382941995297,     0.090565061778275 ]
  - # (1, 27)
    - [    -0.113241877660681,    -0.112404733549230,    -0.196393726777722 ]
    - [    -0.112404733333133,     0.035204847014349,    -0.189832728858082 ]
    - [    -0.196393727741231,    -0.189832730563194,    -0.244683526118536 ]
  - # (2, 1)
    - [    -0.478681586286186,    -0.001126438336294,    -0.025720049299975 ]
    - [    -0.001126438657298,     0.096834828222701,    -0.050409158807899 ]
    - [    -0.025720047045687,    -0.050409159209273,     0.059126205317878 ]
  - # (2, 2)
    - [     1.316880678801534,     0.015203233318609,     0.027661775757683 ]
    - [     0.015203233318609,     1.323115831742750,    -0.022565025025062 ]
    - [     0.027661775757683,    -0.022565025025062,     1.294110093444886 ]
  - # (2, 3)
    - [    -0.478681586238787,    -0.001126438538302,    -0.025720049262525 ]
    - [    -0.001126438538302,     0.096834827926007,    -0.050409158769791 ]
    - [    -0.025720049262525,    -0.050409158769791,     0.059126204812980 ]
  - # (2, 4)
    - [    -0.003155990723318,    -0.125628298381606,     0.002727981344289 ]
    - [    -0.125628298263506,    -0.054678663193783,    -0.002225348508397 ]
    - [     0.002727982153331,    -0.002225347668243,     0.036192588548023 ]
  - # (2, 5)
    - [     0.074054475425679,     0.112217606809650,     0.044214969835028 ]
    - [     0.112217606565661,    -0.455901234368090,     0.035321954358516 ]
    - [     0.044214969119391,     0.035321956466644,     0.059126206803591 ]
  - # (2, 6)
    - [    -0.104311421767667,     0.021352290686706,    -0.018750591693249 ]
    - [     0.021352290762249,    -0.095554421301732,     0.015295763151786 ]
    - [    -0.018750591686837,     0.015295762915465,    -0.114701154202918 ]
  - # (2, 7)
    - [    -0.104311421716051,     0.021352290695827,    -0.018750591667102 ]
    - [     0.021352290788557,    -0.095554421337197,     0.015295763133801 ]
    - [    -0.018750591812761,     0.015295762803617,    -0.114701154185910 ]
  - # (2, 8)
    - [     0.074054475345946,     0.112217606882004,     0.044214969742541 ]
    - [     0.112217606668518,    -0.455901234448092,     0.035321954280883 ]
    - [     0.044214969215534,     0.035321956421287,     0.059126206620649 ]
  - # (2, 9)
    - [    -0.003155990695201,    -0.125628298463080,     0.002727981410630 ]
    - [    -0.125628298392671,    -0.054678663078317,    -0.002225348412779 ]
    - [     0.002727982183112,    -0.002225347511038,     0.036192588713956 ]
  - # (2, 10)
    - [     0.022251003532955,     0.076295934815167,    -0.096393963494651 ]
    - [     0.076295935617136,    -0.005995771263844,     0.035139047731361 ]
    - [    -0.096393965567827,     0.035139048181135,    -0.035629621897117 ]
  - # (2, 11)
    - [     0.073453793537426,    -0.074120923524923,     0.146511578816623 ]
    - [    -0.074120923250329,    -0.151490825520702,     0.230524006381228 ]
    - [     0.146511577764306,     0.230524006292480,    -0.244683517847478 ]
  - # (2, 12)
    - [    -0.131070135516225,    -0.006087884841144,    -0.031314017916359 ]
    - [    -0.006087884874636,    -0.133566898639505,     0.025544355075109 ]
    - [    -0.031314017962516,     0.025544354806268,    -0.114366389585283 ]
  - # (2, 13)
    - [     0.136436600400851,     0.014139986103906,     0.016252986706136 ]
    - [     0.014139986034161,     0.047817159829121,     0.038382942151168 ]
    - [     0.016252986259042,     0.038382942283041,     0.090565061601092 ]
  - # (2, 14)
    - [    -0.105440554774898,     0.123455863180738,     0.223582954409139 ]
    - [     0.123455861140732,    -0.054808841687194,    -0.182387419010541 ]
    - [     0.223582956811706,    -0.182387424132084,    -0.289956007372570 ]
  - # (2, 15)
    - [    -0.113241878588961,    -0.112404734702962,    -0.196393728026935 ]
    - [    -0.112404734701674,     0.035204845610862,    -0.189832730614136 ]
    - [    -0.196393727966152,    -0.189832730856259,    -0.244683526734438 ]
  - # (2, 16)
    - [    -0.039679001308144,    -0.095834713649630,     0.009573017764901 ]
    - [    -0.095834713587298,    -0.078982729947102,    -0.007809175608789 ]
    - [     0.009573018821575,    -0.007809174449913,     0.097019665782498 ]
  - # (2, 17)
    - [     0.045828119004828,    -0.004440187285382,    -0.034335638561632 ]
    - [    -0.004440187251021,     0.138425640949605,    -0.023632047460740 ]
    - [    -0.034335638424169,    -0.023632047826281,     0.090565060354310 ]
  - # (2, 18)
    - [    -0.034883762931419,     0.064579881148207,    -0.053786387954065 ]
    - [     0.064579881393522,     0.051138995954571,     0.087370324845022 ]
    - [    -0.053786389330183,     0.087370325386289,    -0.035629620745324 ]
  - # (2, 19)
    - [    -0.131070133955744,    -0.006087885390130,    -0.031314017338132 ]
    - [    -0.006087885474184,    -0.133566898642182,     0.025544355287790 ]
    - [    -0.031314018028351,     0.025544355598789,    -0.114366390669816 ]
  - # (2, 20)
    - [     0.073453794276950,    -0.074120922556953,     0.146511577402449 ]
    - [    -0.074120922590445,    -0.151490824267749,     0.230524005124890 ]
    - [     0.146511577356292,     0.230524004856049,    -0.244683516149510 ]
  - # (2, 21)
    - [     0.022251003126543,     0.076295935543614,    -0.096393964236620 ]
    - [     0.076295936015793,    -0.005995771781738,     0.035139048252393 ]
    - [    -0.096393964776311,     0.035139047759065,    -0.035629621170948 ]
  - # (2, 22)
    - [    -0.034883763855074,     0.064579881441162,    -0.053786388240268 ]
    - [     0.064579881994242,     0.051138995540795,     0.087370325237319 ]
    - [    -0.053786388559006,     0.087370324440863,    -0.035629620121030 ]
  - # (2, 23)
    - [     0.045828119027851,    -0.004440186992550,    -0.034335638357183 ]
    - [    -0.004440187401757,     0.138425640986680,    -0.023632047455848 ]
    - [    -0.034335638793059,    -0.023632047853716,     0.090565060850903 ]
  - # (2, 24)
    - [    -0.039679001277618,    -0.095834713733038,     0.009573017744778 ]
    - [    -0.095834713715687,    -0.078982730071643,    -0.007809175642020 ]
    - [     0.009573018707677,    -0.007809174464062,     0.097019665543810 ]
  - # (2, 25)
    - [    -0.113241877769102,    -0.112404733924620,    -0.196393726771727 ]
    - [    -0.112404733718212,     0.035204846621732,    -0.189832729100845 ]
    - [    -0.196393726748702,    -0.189832730226539,    -0.244683524970049 ]
  - # (2, 26)
    - [    -0.105440555250235,     0.123455863754866,     0.223582954986537 ]
    - [     0.123455863756154,    -0.054808843804443,    -0.182387422616462 ]
    - [     0.223582955047319,    -0.182387422858585,    -0.289956004932457 ]
  - # (2, 27)
    - [     0.136436600174067,     0.014139985940159,     0.016252986899687 ]
    - [     0.014139986361686,     0.047817159968489,     0.038382942022041 ]
    - [     0.016252986767117,     0.038382942639853,     0.090565062190273 ]
  - # (3, 1)
    - [    -0.478681586286186,    -0.001126438336294,    -0.025720049299975 ]
    - [    -0.001126438657298,     0.096834828222701,    -0.050409158807899 ]
    - [    -0.025720047045687,    -0.050409159209273,     0.059126205317878 ]
  - # (3, 2)
    - [    -0.478681586238787,    -0.001126438538302,    -0.025720049262525 ]
    - [    -0.001126438538302,     0.096834827926007,    -0.050409158769791 ]
    - [    -0.025720049262525,    -0.050409158769791,     0.059126204812980 ]
  - # (3, 3)
    - [     1.316880678801534,     0.015203233318609,     0.027661775757683 ]
    - [     0.015203233318609,     1.323115831742750,    -0.022565025025062 ]
    - [     0.027661775757683,    -0.022565025025062,     1.294110093444886 ]
  - # (3, 4)
    - [    -0.104311421716051,     0.021352290695827,    -0.018750591667102 ]
    - [     0.021352290788557,    -0.095554421337197,     0.015295763133801 ]
    - [    -0.018750591812761,     0.015295762803617,    -0.114701154185910 ]
  - # (3, 5)
    - [    -0.003155990695201,    -0.125628298463080,     0.002727981410630 ]
    - [    -0.125628298392671,    -0.054678663078317,    -0.002225348412779 ]
    - [     0.002727982183112,    -0.002225347511038,     0.036192588713956 ]
  - # (3, 6)
    - [     0.074054475345946,     0.112217606882004,     0.044214969742541 ]
    - [     0.112217606668518,    -0.455901234448092,     0.035321954280883 ]
    - [     0.044214969215534,     0.035321956421287,     0.059126206620649 ]
  - # (3, 7)
    - [    -0.003155990723318,    -0.125628298381606,     0.002727981344289 ]
    - [    -0.125628298263506,    -0.054678663193783,    -0.002225348508397 ]
    - [     0.002727982153331,    -0.002225347668243,     0.036192588548023 ]
  - # (3, 8)
    - [    -0.104311421767667,     0.021352290686706,    -0.018750591693249 ]
    - [     0.021352290762249,    -0.095554421301732,     0.015295763151786 ]
    - [    -0.018750591686837,     0.015295762915465,    -0.114701154202918 ]
  - # (3, 9)
    - [     0.074054475425679,     0.112217606809650,     0.044214969835028 ]
    - [     0.112217606565661,    -0.455901234368090,     0.035321954358516 ]
    - [     0.044214969119391,     0.035321956466644,     0.059126206803591 ]
  - # (3, 10)
    - [    -0.131070133955744,    -0.006087885390130,    -0.031314017338132 ]
    - [    -0.006087885474184,    -0.133566898642182,     0.025544355287790 ]
    - [    -0.031314018028351,     0.025544355598789,    -0.114366390669816 ]
  - # (3, 11)
    - [     0.022251003126543,     0.076295935543614,    -0.096393964236620 ]
    - [     0.076295936015793,    -0.005995771781738,     0.035139048252393 ]
    - [    -0.096393964776311,     0.035139047759065,    -0.035629621170948 ]
  - # (3, 12)
    - [     0.073453794276950,    -0.074120922556953,     0.146511577402449 ]
    - [    -0.074120922590445,    -0.151490824267749,     0.230524005124890 ]
    - [     0.146511577356292,     0.230524004856049,    -0.244683516149510 ]
  - # (3, 13)
    - [    -0.113241877769102,    -0.112404733924620,    -0.196393726771727 ]
    - [    -0.112404733718212,     0.035204846621732,    -0.189832729100845 ]
    - [    -0.196393726748702,    -0.189832730226539,    -0.244683524970049 ]
  - # (3, 14)
    - [     0.136436600174067,     0.014139985940159,     0.016252986899687 ]
    - [     0.014139986361686,     0.047817159968489,     0.038382942022041 ]
    - [     0.016252986767117,     0.038382942639853,     0.090565062190273 ]
  - # (3, 15)
    - [    -0.105440555250235,     0.123455863754866,     0.223582954986537 ]
    - [     0.123455863756154,    -0.054808843804443,    -0.182387422616462 ]
    - [     0.223582955047319,    -0.182387422858585,    -0.289956004932457 ]
  - # (3, 16)
    - [    -0.034883763855074,     0.064579881441162,    -0.053786388240268 ]
    - [     0.064579881994242,     0.051138995540795,     0.087370325237319 ]
    - [    -0.053786388559006,     0.087370324440863,    -0.035629620121030 ]
  - # (3, 17)
    - [    -0.039679001277618,    -0.095834713733038,     0.009573017744778 ]
    - [    -0.095834713715687,    -0.078982730071643,    -0.007809175642020 ]
    - [     0.009573018707677,    -0.007809174464062,     0.097019665543810 ]
  - # (3, 18)
    - [     0.045828119027851,    -0.004440186992550,    -0.034335638357183 ]
    - [    -0.004440187401757,     0.138425640986680,    -0.023632047455848 ]
    - [    -0.034335638793059,    -0.023632047853716,     0.090565060850903 ]
  - # (3, 19)
    - [     0.022251003532955,     0.076295934815167,    -0.096393963494651 ]
    - [     0.076295935617136,    -0.005995771263844,     0.035139047731361 ]
    - [    -0.096393965567827,     0.035139048181135,    -0.035629621897117 ]
  - # (3, 20)
    - [    -0.131070135516225,    -0.006087884841144,    -0.031314017916359 ]
    - [    -0.006087884874636,    -0.133566898639505,     0.025544355075109 ]
    - [    -0.031314017962516,     0.025544354806268,    -0.114366389585283 ]
  - # (3, 21)
    - [     0.073453793537426,    -0.074120923524923,     0.146511578816623 ]
    - [    -0.074120923250329,    -0.151490825520702,     0.230524006381228 ]
    - [     0.146511577764306,     0.230524006292480,    -0.244683517847478 ]
  - # (3, 22)
    - [    -0.039679001308144,    -0.095834713649630,     0.009573017764901 ]
    - [    -0.095834713587298,    -0.078982729947102,    -0.007809175608789 ]
    - [     0.009573018821575,    -0.007809174449913,     0.097019665782498 ]
  - # (3, 23)
    - [    -0.034883762931419,     0.064579881148207,    -0.053786387954065 ]
    - [     0.064579881393522,     0.051138995954571,     0.087370324845022 ]
    - [    -0.053786389330183,     0.087370325386289,    -0.035629620745324 ]
  - # (3, 24)
    - [     0.045828119004828,    -0.004440187285382,    -0.034335638561632 ]
    - [    -0.004440187251021,     0.138425640949605,    -0.023632047460740 ]
    - [    -0.034335638424169,    -0.023632047826281,     0.090565060354310 ]
  - # (3, 25)
    - [     0.136436600400851,     0.014139986103906,     0.016252986706136 ]
    - [     0.014139986034161,     0.047817159829121,     0.038382942151168 ]
    - [     0.016252986259042,     0.038382942283041,     0.090565061601092 ]
  - # (3, 26)
    - [    -0.113241878588961,    -0.112404734702962,    -0.196393728026935 ]
    - [    -0.112404734701674,     0.035204845610862,    -0.189832730614136 ]
    - [    -0.196393727966152,    -0.189832730856259,    -0.244683526734438 ]
  - # (3, 27)
    - [    -0.105440554774898,     0.123455863180738,     0.223582954409139 ]
    - [     0.123455861140732,    -0.054808841687194,    -0.182387419010541 ]
    - [     0.223582956811706,    -0.182387424132084,    -0.289956007372570 ]
  - # (4, 1)
    - [     0.074054475449513,     0.112217606536257,     0.044214969111944 ]
    - [     0.112217606411552,    -0.455901234235393,     0.035321956222561 ]
    - [     0.044214969076461,     0.035321956196480,     0.059126206406456 ]
  - # (4, 2)
    - [    -0.003155990723318,    -0.125628298263506,     0.002727982153331 ]
    - [    -0.125628298381606,    -0.054678663193783,    -0.002225347668243 ]
    - [     0.002727981344289,    -0.002225348508397,     0.036192588548023 ]
  - # (4, 3)
    - [    -0.104311421716051,     0.021352290788557,    -0.018750591812761 ]
    - [     0.021352290695827,    -0.095554421337197,     0.015295762803617 ]
    - [    -0.018750591667102,     0.015295763133801,    -0.114701154185910 ]
  - # (4, 4)
    - [     1.316880680485167,     0.015203233639963,     0.027661764930139 ]
    - [     0.015203233639963,     1.323115830137419,    -0.022565038156512 ]
    - [     0.027661764930139,    -0.022565038156512,     1.294110093413670 ]
  - # (4, 5)
    - [    -0.478681586535806,    -0.001126438329391,    -0.025720047234398 ]
    - [    -0.001126438377082,     0.096834828394091,    -0.050409159036157 ]
    - [    -0.025720047270958,    -0.050409158974570,     0.059126205683797 ]
  - # (4, 6)
    - [    -0.478681586615539,    -0.001126438257038,    -0.025720047326885 ]
    - [    -0.001126438274225,     0.096834828314089,    -0.050409159113789 ]
    - [    -0.025720047174815,    -0.050409159019927,     0.059126205500856 ]
  - # (4, 7)
    - [     0.074054475334344,     0.112217606577592,     0.044214968985402 ]
    - [     0.112217606577592,    -0.455901234355778,     0.035321956267324 ]
    - [     0.044214968985402,     0.035321956267324,     0.059126206254000 ]
  - # (4, 8)
    - [    -0.104311421700677,     0.021352290734862,    -0.018750591257880 ]
    - [     0.021352290717675,    -0.095554421329571,     0.015295763680525 ]
    - [    -0.018750591105809,     0.015295763774388,    -0.114701154218526 ]
  - # (4, 9)
    - [    -0.003155990669769,    -0.125628298410761,     0.002727982178345 ]
    - [    -0.125628298458452,    -0.054678663064598,    -0.002225347476627 ]
    - [     0.002727982141786,    -0.002225347415040,     0.036192588698348 ]
  - # (4, 10)