# Thermal properties / unit cell (natom)

unit:
  temperature:   K
  free_energy:   kJ/mol
  entropy:       J/K/mol
  heat_capacity: J/K/mol

natom: 4    
cutoff_frequency: 0.00000
num_modes: 267696
num_integrated_modes: 267173

zero_point_energy:      11.4071588

thermal_properties:
- temperature:         0.0000000
  free_energy:        11.4071588
  entropy:             0.0000000
  heat_capacity:       0.0000000
  energy:             11.4071588

- temperature:        10.0000000
  free_energy:        11.4048672
  entropy:             0.8190454
  heat_capacity:       2.2295230
  energy:             11.4130576

- temperature:        20.0000000
  free_energy:        11.3780509
  entropy:             5.2606443
  heat_capacity:      12.8425215
  energy:             11.4832638

- temperature:        30.0000000
  free_energy:        11.2894350
  entropy:            12.7415474
  heat_capacity:      24.3763713
  energy:             11.6716814

- temperature:        40.0000000
  free_energy:        11.1208769
  entropy:            20.9820348
  heat_capacity:      32.8680852
  energy:             11.9601583

- temperature:        50.0000000
  free_energy:        10.8704632
  entropy:            29.0450655
  heat_capacity:      39.4438110
  energy:             12.3227164

- temperature:        60.0000000
  free_energy:        10.5411678
  entropy:            36.7555860
  heat_capacity:      45.2334153
  energy:             12.7465029

- temperature:        70.0000000
  free_energy:        10.1364432
  entropy:            44.1386081
  heat_capacity:      50.6398053
  energy:             13.2261457

- temperature:        80.0000000
  free_energy:         9.6593491
  entropy:            51.2348917
  heat_capacity:      55.6962390
  energy:             13.7581404

- temperature:        90.0000000
  free_energy:         9.1126226
  entropy:            58.0675659
  heat_capacity:      60.3433738
  energy:             14.3387035

- temperature:       100.0000000
  free_energy:         8.4988431
  entropy:            64.6464806
  heat_capacity:      64.5367822
  energy:             14.9634911

- temperature:       110.0000000
  free_energy:         7.8205239
  entropy:            70.9761095
  heat_capacity:      68.2681877
  energy:             15.6278959

- temperature:       120.0000000
  free_energy:         7.0801390
  entropy:            77.0603490
  heat_capacity:      71.5579324
  energy:             16.3273809

- temperature:       130.0000000
  free_energy:         6.2801174
  entropy:            82.9045140
  heat_capacity:      74.4427709
  energy:             17.0577042

- temperature:       140.0000000
  free_energy:         5.4228253
  entropy:            88.5157601
  heat_capacity:      76.9662465
  energy:             17.8150317

- temperature:       150.0000000
  free_energy:         4.5105496
  entropy:            93.9028189
  heat_capacity:      79.1726206
  energy:             18.5959724

- temperature:       160.0000000
  free_energy:         3.5454835
  entropy:            99.0755187
  heat_capacity:      81.1035673
  energy:             19.3975665

- temperature:       170.0000000
  free_energy:         2.5297189
  entropy:           104.0443089
  heat_capacity:      82.7966630
  energy:             20.2172514

- temperature:       180.0000000
  free_energy:         1.4652415
  entropy:           108.8198670
  heat_capacity:      84.2849266
  energy:             21.0528175

- temperature:       190.0000000
  free_energy:         0.3539303
  entropy:           113.4128030
  heat_capacity:      85.5969224
  energy:             21.9023629

- temperature:       200.0000000
  free_energy:        -0.8024404
  entropy:           117.8334538
  heat_capacity:      86.7571313
  energy:             22.7642504

- temperature:       210.0000000
  free_energy:        -2.0021977
  entropy:           122.0917481
  heat_capacity:      87.7864254
  energy:             23.6370694

- temperature:       220.0000000
  free_energy:        -3.2437657
  entropy:           126.1971257
  heat_capacity:      88.7025546
  energy:             24.5196020

- temperature:       230.0000000
  free_energy:        -4.5256602
  entropy:           130.1584959
  heat_capacity:      89.5206033
  energy:             25.4107939

- temperature:       240.0000000
  free_energy:        -5.8464835
  entropy:           133.9842233
  heat_capacity:      90.2533984
  energy:             26.3097301

- temperature:       250.0000000
  free_energy:        -7.2049187
  entropy:           137.6821316
  heat_capacity:      90.9118626
  energy:             27.2156142

- temperature:       260.0000000
  free_energy:        -8.5997245
  entropy:           141.2595202
  heat_capacity:      91.5053164
  energy:             28.1277508

- temperature:       270.0000000
  free_energy:       -10.0297301
  entropy:           144.7231875
  heat_capacity:      92.0417323
  energy:             29.0455306

- temperature:       280.0000000
  free_energy:       -11.4938303
  entropy:           148.0794588
  heat_capacity:      92.5279484
  energy:             29.9684182

- temperature:       290.0000000
  free_energy:       -12.9909809
  entropy:           151.3342165
  heat_capacity:      92.9698467
  energy:             30.8959419

- temperature:       300.0000000
  free_energy:       -14.5201945
  entropy:           154.4929297
  heat_capacity:      93.3725017
  energy:             31.8276844

- temperature:       310.0000000
  free_energy:       -16.0805363
  entropy:           157.5606844
  heat_capacity:      93.7403047
  energy:             32.7632758

- temperature:       320.0000000
  free_energy:       -17.6711208
  entropy:           160.5422121
  heat_capacity:      94.0770671
  energy:             33.7023871

- temperature:       330.0000000
  free_energy:       -19.2911079
  entropy:           163.4419172
  heat_capacity:      94.3861069
  energy:             34.6447248

- temperature:       340.0000000
  free_energy:       -20.9397001
  entropy:           166.2639018
  heat_capacity:      94.6703211
  energy:             35.5900265

- temperature:       350.0000000
  free_energy:       -22.6161396
  entropy:           169.0119902
  heat_capacity:      94.9322465
  energy:             36.5380570

- temperature:       360.0000000
  free_energy:       -24.3197055
  entropy:           171.6897503
  heat_capacity:      95.1741110
  energy:             37.4886046

- temperature:       370.0000000
  free_energy:       -26.0497113
  entropy:           174.3005140
  heat_capacity:      95.3978761
  energy:             38.4414789

- temperature:       380.0000000
  free_energy:       -27.8055029
  entropy:           176.8473959
  heat_capacity:      95.6052739
  energy:             39.3965076

- temperature:       390.0000000
  free_energy:       -29.5864560
  entropy:           179.3333101
  heat_capacity:      95.7978377
  energy:             40.3535349

- temperature:       400.0000000
  free_energy:       -31.3919750
  entropy:           181.7609860
  heat_capacity:      95.9769283
  energy:             41.3124194

- temperature:       410.0000000
  free_energy:       -33.2214902
  entropy:           184.1329824
  heat_capacity:      96.1437563
  energy:             42.2730326

- temperature:       420.0000000
  free_energy:       -35.0744570
  entropy:           186.4517008
  heat_capacity:      96.2994013
  energy:             43.2352573

- temperature:       430.0000000
  free_energy:       -36.9503541
  entropy:           188.7193971
  heat_capacity:      96.4448284
  energy:             44.1989866

- temperature:       440.0000000
  free_energy:       -38.8486820
  entropy:           190.9381925
  heat_capacity:      96.5809020
  energy:             45.1641227

- temperature:       450.0000000
  free_energy:       -40.7689617
  entropy:           193.1100838
  heat_capacity:      96.7083981
  energy:             46.1305761

- temperature:       460.0000000
  free_energy:       -42.7107336
  entropy:           195.2369522
  heat_capacity:      96.8280150
  energy:             47.0982644

- temperature:       470.0000000
  free_energy:       -44.6735565
  entropy:           197.3205718
  heat_capacity:      96.9403820
  energy:             48.0671122

- temperature:       480.0000000
  free_energy:       -46.6570065
  entropy:           199.3626172
  heat_capacity:      97.0460675
  energy:             49.0370498

- temperature:       490.0000000
  free_energy:       -48.6606756
  entropy:           201.3646706
  heat_capacity:      97.1455859
  energy:             50.0080130

- temperature:       500.0000000
  free_energy:       -50.6841716
  entropy:           203.3282281
  heat_capacity:      97.2394033
  energy:             50.9799425

- temperature:       510.0000000
  free_energy:       -52.7271166
  entropy:           205.2547060
  heat_capacity:      97.3279433
  energy:             51.9527835

- temperature:       520.0000000
  free_energy:       -54.7891466
  entropy:           207.1454454
  heat_capacity:      97.4115910
  energy:             52.9264851

- temperature:       530.0000000
  free_energy:       -56.8699106
  entropy:           209.0017184
  heat_capacity:      97.4906975
  energy:             53.9010002

- temperature:       540.0000000
  free_energy:       -58.9690701
  entropy:           210.8247315
  heat_capacity:      97.5655829
  energy:             54.8762850

- temperature:       550.0000000
  free_energy:       -61.0862982
  entropy:           212.6156307
  heat_capacity:      97.6365402
  energy:             55.8522987

- temperature:       560.0000000
  free_energy:       -63.2212793
  entropy:           214.3755051
  heat_capacity:      97.7038372
  energy:             56.8290036

- temperature:       570.0000000
  free_energy:       -65.3737083
  entropy:           216.1053902
  heat_capacity:      97.7677199
  energy:             57.8063641

- temperature:       580.0000000
  free_energy:       -67.5432904
  entropy:           217.8062720
  heat_capacity:      97.8284136
  energy:             58.7843473

- temperature:       590.0000000
  free_energy:       -69.7297402
  entropy:           219.4790892
  heat_capacity:      97.8861259
  energy:             59.7629224

- temperature:       600.0000000
  free_energy:       -71.9327816
  entropy:           221.1247370
  heat_capacity:      97.9410476
  energy:             60.7420605

- temperature:       610.0000000
  free_energy:       -74.1521472
  entropy:           222.7440687
  heat_capacity:      97.9933547
  energy:             61.7217347

- temperature:       620.0000000
  free_energy:       -76.3875780
  entropy:           224.3378991
  heat_capacity:      98.0432095
  energy:             62.7019195

- temperature:       630.0000000
  free_energy:       -78.6388228
  entropy:           225.9070064
  heat_capacity:      98.0907622
  energy:             63.6825912

- temperature:       640.0000000
  free_energy:       -80.9056382
  entropy:           227.4521339
  heat_capacity:      98.1361515
  energy:             64.6637275

- temperature:       650.0000000
  free_energy:       -83.1877879
  entropy:           228.9739929
  heat_capacity:      98.1795061
  energy:             65.6453074

- temperature:       660.0000000
  free_energy:       -85.4850428
  entropy:           230.4732636
  heat_capacity:      98.2209450
  energy:             66.6273112

- temperature:       670.0000000
  free_energy:       -87.7971801
  entropy:           231.9505976
  heat_capacity:      98.2605790
  energy:             67.6097203

- temperature:       680.0000000
  free_energy:       -90.1239837
  entropy:           233.4066189
  heat_capacity:      98.2985109
  energy:             68.5925171

- temperature:       690.0000000
  free_energy:       -92.4652434
  entropy:           234.8419255
  heat_capacity:      98.3348363
  energy:             69.5756852

- temperature:       700.0000000
  free_energy:       -94.8207551
  entropy:           236.2570912
  heat_capacity:      98.3696442
  energy:             70.5592088

- temperature:       710.0000000
  free_energy:       -97.1903199
  entropy:           237.6526665
  heat_capacity:      98.4030176
  energy:             71.5430733

- temperature:       720.0000000
  free_energy:       -99.5737449
  entropy:           239.0291799
  heat_capacity:      98.4350340
  energy:             72.5272646

- temperature:       730.0000000
  free_energy:      -101.9708417
  entropy:           240.3871389
  heat_capacity:      98.4657656
  energy:             73.5117697

- temperature:       740.0000000
  free_energy:      -104.3814274
  entropy:           241.7270315
  heat_capacity:      98.4952799
  energy:             74.4965759

- temperature:       750.0000000
  free_energy:      -106.8053237
  entropy:           243.0493268
  heat_capacity:      98.5236402
  energy:             75.4816714

- temperature:       760.0000000
  free_energy:      -109.2423568
  entropy:           244.3544761
  heat_capacity:      98.5509056
  energy:             76.4670451

- temperature:       770.0000000
  free_energy:      -111.6923575
  entropy:           245.6429137
  heat_capacity:      98.5771316
  energy:             77.4526861

- temperature:       780.0000000
  free_energy:      -114.1551608
  entropy:           246.9150579
  heat_capacity:      98.6023701
  energy:             78.4385844

- temperature:       790.0000000
  free_energy:      -116.6306057
  entropy:           248.1713114
  heat_capacity:      98.6266699
  energy:             79.4247304

- temperature:       800.0000000
  free_energy:      -119.1185353
  entropy:           249.4120627
  heat_capacity:      98.6500768
  energy:             80.4111148

- temperature:       810.0000000
  free_energy:      -121.6187965
  entropy:           250.6376859
  heat_capacity:      98.6726340
  energy:             81.3977291

- temperature:       820.0000000
  free_energy:      -124.1312398
  entropy:           251.8485422
  heat_capacity:      98.6943818
  energy:             82.3845648

- temperature:       830.0000000
  free_energy:      -126.6557193
  entropy:           253.0449800
  heat_capacity:      98.7153584
  energy:             83.3716141

- temperature:       840.0000000
  free_energy:      -129.1920925
  entropy:           254.2273357
  heat_capacity:      98.7355998
  energy:             84.3588695

- temperature:       850.0000000
  free_energy:      -131.7402202
  entropy:           255.3959340
  heat_capacity:      98.7551398
  energy:             85.3463238

- temperature:       860.0000000
  free_energy:      -134.2999663
  entropy:           256.5510889
  heat_capacity:      98.7740103
  energy:             86.3339701

- temperature:       870.0000000
  free_energy:      -136.8711981
  entropy:           257.6931034
  heat_capacity:      98.7922416
  energy:             87.3218019

- temperature:       880.0000000
  free_energy:      -139.4537856
  entropy:           258.8222710
  heat_capacity:      98.8098620
  energy:             88.3098129

- temperature:       890.0000000
  free_energy:      -142.0476017
  entropy:           259.9388751
  heat_capacity:      98.8268984
  energy:             89.2979972

- temperature:       900.0000000
  free_energy:      -144.6525221
  entropy:           261.0431901
  heat_capacity:      98.8433764
  energy:             90.2863490

- temperature:       910.0000000
  free_energy:      -147.2684254
  entropy:           262.1354816
  heat_capacity:      98.8593200
  energy:             91.2748629

- temperature:       920.0000000
  free_energy:      -149.8951925
  entropy:           263.2160068
  heat_capacity:      98.8747520
  energy:             92.2635337

- temperature:       930.0000000
  free_energy:      -152.5327071
  entropy:           264.2850145
  heat_capacity:      98.8896940
  energy:             93.2523563

- temperature:       940.0000000
  free_energy:      -155.1808552
  entropy:           265.3427460
  heat_capacity:      98.9041664
  energy:             94.2413260

- temperature:       950.0000000
  free_energy:      -157.8395253
  entropy:           266.3894352
  heat_capacity:      98.9181888
  energy:             95.2304381

- temperature:       960.0000000
  free_energy:      -160.5086079
  entropy:           267.4253086
  heat_capacity:      98.9317795
  energy:             96.2196883

- temperature:       970.0000000
  free_energy:      -163.1879961
  entropy:           268.4505860
  heat_capacity:      98.9449560
  energy:             97.2090723

- temperature:       980.0000000
  free_energy:      -165.8775850
  entropy:           269.4654807
  heat_capacity:      98.9577349
  energy:             98.1985861

- temperature:       990.0000000
  free_energy:      -168.5772718
  entropy:           270.4701996
  heat_capacity:      98.9701321
  energy:             99.1882258

- temperature:      1000.0000000
  free_energy:      -171.2869557
  entropy:           271.4649433
  heat_capacity:      98.9821626
  energy:            100.1779875
