phonopy:
  version: "2.37.1"
  frequency_unit_conversion_factor: 15.633302
  symmetry_tolerance: 1.00000e-05

space_group:
  type: "P1"
  number: 1
  Hall_symbol: "P 1"

primitive_matrix:
- [ -1.000000000000000, -0.000000000000000,  0.000000000000000 ]
- [  0.000000000000000, -1.000000000000000,  0.000000000000000 ]
- [  0.000000000000000,  0.000000000000000,  1.000000000000000 ]

supercell_matrix:
- [   3,   0,   0 ]
- [   0,   2,   0 ]
- [   0,   0,   2 ]

primitive_cell:
  lattice:
  - [    -4.385355973604055,     0.000000000000000,     0.000000000000000 ] # a
  - [    -0.000064587481394,    -6.110399282542994,     0.000000000000000 ] # b
  - [    -2.172614215669976,    -0.001410249392832,     7.089333611599947 ] # c
  points:
  - symbol: Li # 1
    coordinates: [  0.032818442018791,  0.484780015642419,  0.312875525751664 ]
    mass: 6.940000
  - symbol: Li # 2
    coordinates: [  0.258517898219059,  0.482605927606750,  0.860079185762064 ]
    mass: 6.940000
  - symbol: Li # 3
    coordinates: [  0.031958764287274,  0.985246319681490,  0.314163605683909 ]
    mass: 6.940000
  - symbol: Li # 4
    coordinates: [  0.259600127008619,  0.983581490667174,  0.859917169294614 ]
    mass: 6.940000
  - symbol: Ga # 5
    coordinates: [  0.849723481599417,  0.733564015904402,  0.682363252841489 ]
    mass: 69.723000
  - symbol: Ga # 6
    coordinates: [  0.442427516906018,  0.234921474431447,  0.491402561621794 ]
    mass: 69.723000
  - symbol: Ga # 7
    coordinates: [  0.847581782210799,  0.234000554444116,  0.681831069414404 ]
    mass: 69.723000
  - symbol: Ga # 8
    coordinates: [  0.443827905133876,  0.735141232311048,  0.491826582425023 ]
    mass: 69.723000
  - symbol: Sn # 9
    coordinates: [  0.645278196239674,  0.735229349625468,  0.085984177794036 ]
    mass: 118.710000
  - symbol: Sn # 10
    coordinates: [  0.644698765140080,  0.235321671557099,  0.085816816905220 ]
    mass: 118.710000
  reciprocal_lattice: # without 2pi
  - [    -0.228031659463704,     0.000002410315575,    -0.069883129884574 ] # a*
  - [    -0.000000000000000,    -0.163655426390373,    -0.000032555241204 ] # b*
  - [    -0.000000000000000,    -0.000000000000000,     0.141056981486066 ] # c*

unit_cell:
  lattice:
  - [     4.385355973604056,     0.000000000000000,     0.000000000000000 ] # a
  - [     0.000064587481394,     6.110399282542995,     0.000000000000000 ] # b
  - [    -2.172614215669976,    -0.001410249392832,     7.089333611599947 ] # c
  points:
  - symbol: Li # 1
    coordinates: [  0.967181557981209,  0.515219984357581,  0.312875525751664 ]
    mass: 6.940000
    reduced_to: 1
  - symbol: Li # 2
    coordinates: [  0.741482101780941,  0.517394072393250,  0.860079185762064 ]
    mass: 6.940000
    reduced_to: 2
  - symbol: Li # 3
    coordinates: [  0.968041235712726,  0.014753680318510,  0.314163605683909 ]
    mass: 6.940000
    reduced_to: 3
  - symbol: Li # 4
    coordinates: [  0.740399872991381,  0.016418509332826,  0.859917169294614 ]
    mass: 6.940000
    reduced_to: 4
  - symbol: Ga # 5
    coordinates: [  0.150276518400583,  0.266435984095598,  0.682363252841489 ]
    mass: 69.723000
    reduced_to: 5
  - symbol: Ga # 6
    coordinates: [  0.557572483093982,  0.765078525568553,  0.491402561621794 ]
    mass: 69.723000
    reduced_to: 6
  - symbol: Ga # 7
    coordinates: [  0.152418217789201,  0.765999445555884,  0.681831069414404 ]
    mass: 69.723000
    reduced_to: 7
  - symbol: Ga # 8
    coordinates: [  0.556172094866124,  0.264858767688952,  0.491826582425023 ]
    mass: 69.723000
    reduced_to: 8
  - symbol: Sn # 9
    coordinates: [  0.354721803760326,  0.264770650374532,  0.085984177794036 ]
    mass: 118.710000
    reduced_to: 9
  - symbol: Sn # 10
    coordinates: [  0.355301234859920,  0.764678328442901,  0.085816816905220 ]
    mass: 118.710000
    reduced_to: 10

supercell:
  lattice:
  - [    13.156067920812166,     0.000000000000000,     0.000000000000000 ] # a
  - [     0.000129174962787,    12.220798565085991,     0.000000000000000 ] # b
  - [    -4.345228431339952,    -0.002820498785663,    14.178667223199893 ] # c
  points:
  - symbol: Li # 1
    coordinates: [  0.322393852660403,  0.257609992178790,  0.156437762875832 ]
    mass: 6.940000
    reduced_to: 1
  - symbol: Li # 2
    coordinates: [  0.655727185993736,  0.257609992178790,  0.156437762875832 ]
    mass: 6.940000
    reduced_to: 1
  - symbol: Li # 3
    coordinates: [  0.989060519327070,  0.257609992178790,  0.156437762875832 ]
    mass: 6.940000
    reduced_to: 1
  - symbol: Li # 4
    coordinates: [  0.322393852660403,  0.757609992178790,  0.156437762875832 ]
    mass: 6.940000
    reduced_to: 1
  - symbol: Li # 5
    coordinates: [  0.655727185993736,  0.757609992178790,  0.156437762875832 ]
    mass: 6.940000
    reduced_to: 1
  - symbol: Li # 6
    coordinates: [  0.989060519327070,  0.757609992178790,  0.156437762875832 ]
    mass: 6.940000
    reduced_to: 1
  - symbol: Li # 7
    coordinates: [  0.322393852660403,  0.257609992178790,  0.656437762875832 ]
    mass: 6.940000
    reduced_to: 1
  - symbol: Li # 8
    coordinates: [  0.655727185993736,  0.257609992178790,  0.656437762875832 ]
    mass: 6.940000
    reduced_to: 1
  - symbol: Li # 9
    coordinates: [  0.989060519327070,  0.257609992178790,  0.656437762875832 ]
    mass: 6.940000
    reduced_to: 1
  - symbol: Li # 10
    coordinates: [  0.322393852660403,  0.757609992178790,  0.656437762875832 ]
    mass: 6.940000
    reduced_to: 1
  - symbol: Li # 11
    coordinates: [  0.655727185993736,  0.757609992178790,  0.656437762875832 ]
    mass: 6.940000
    reduced_to: 1
  - symbol: Li # 12
    coordinates: [  0.989060519327070,  0.757609992178790,  0.656437762875832 ]
    mass: 6.940000
    reduced_to: 1
  - symbol: Li # 13
    coordinates: [  0.247160700593647,  0.258697036196625,  0.430039592881032 ]
    mass: 6.940000
    reduced_to: 13
  - symbol: Li # 14
    coordinates: [  0.580494033926980,  0.258697036196625,  0.430039592881032 ]
    mass: 6.940000
    reduced_to: 13
  - symbol: Li # 15
    coordinates: [  0.913827367260314,  0.258697036196625,  0.430039592881032 ]
    mass: 6.940000
    reduced_to: 13
  - symbol: Li # 16
    coordinates: [  0.247160700593647,  0.758697036196625,  0.430039592881032 ]
    mass: 6.940000
    reduced_to: 13
  - symbol: Li # 17
    coordinates: [  0.580494033926980,  0.758697036196625,  0.430039592881032 ]
    mass: 6.940000
    reduced_to: 13
  - symbol: Li # 18
    coordinates: [  0.913827367260314,  0.758697036196625,  0.430039592881032 ]
    mass: 6.940000
    reduced_to: 13
  - symbol: Li # 19
    coordinates: [  0.247160700593647,  0.258697036196625,  0.930039592881032 ]
    mass: 6.940000
    reduced_to: 13
  - symbol: Li # 20
    coordinates: [  0.580494033926980,  0.258697036196625,  0.930039592881032 ]
    mass: 6.940000
    reduced_to: 13
  - symbol: Li # 21
    coordinates: [  0.913827367260314,  0.258697036196625,  0.930039592881032 ]
    mass: 6.940000
    reduced_to: 13
  - symbol: Li # 22
    coordinates: [  0.247160700593647,  0.758697036196625,  0.930039592881032 ]
    mass: 6.940000
    reduced_to: 13
  - symbol: Li # 23
    coordinates: [  0.580494033926980,  0.758697036196625,  0.930039592881032 ]
    mass: 6.940000
    reduced_to: 13
  - symbol: Li # 24
    coordinates: [  0.913827367260314,  0.758697036196625,  0.930039592881032 ]
    mass: 6.940000
    reduced_to: 13
  - symbol: Li # 25
    coordinates: [  0.322680411904242,  0.007376840159255,  0.157081802841955 ]
    mass: 6.940000
    reduced_to: 25
  - symbol: Li # 26
    coordinates: [  0.656013745237575,  0.007376840159255,  0.157081802841955 ]
    mass: 6.940000
    reduced_to: 25
  - symbol: Li # 27
    coordinates: [  0.989347078570909,  0.007376840159255,  0.157081802841955 ]
    mass: 6.940000
    reduced_to: 25
  - symbol: Li # 28
    coordinates: [  0.322680411904242,  0.507376840159255,  0.157081802841955 ]
    mass: 6.940000
    reduced_to: 25
  - symbol: Li # 29
    coordinates: [  0.656013745237575,  0.507376840159255,  0.157081802841955 ]
    mass: 6.940000
    reduced_to: 25
  - symbol: Li # 30
    coordinates: [  0.989347078570909,  0.507376840159255,  0.157081802841955 ]
    mass: 6.940000
    reduced_to: 25
  - symbol: Li # 31
    coordinates: [  0.322680411904242,  0.007376840159255,  0.657081802841955 ]
    mass: 6.940000
    reduced_to: 25
  - symbol: Li # 32
    coordinates: [  0.656013745237575,  0.007376840159255,  0.657081802841955 ]
    mass: 6.940000
    reduced_to: 25
  - symbol: Li # 33
    coordinates: [  0.989347078570909,  0.007376840159255,  0.657081802841955 ]
    mass: 6.940000
    reduced_to: 25
  - symbol: Li # 34
    coordinates: [  0.322680411904242,  0.507376840159255,  0.657081802841955 ]
    mass: 6.940000
    reduced_to: 25
  - symbol: Li # 35
    coordinates: [  0.656013745237575,  0.507376840159255,  0.657081802841955 ]
    mass: 6.940000
    reduced_to: 25
  - symbol: Li # 36
    coordinates: [  0.989347078570909,  0.507376840159255,  0.657081802841955 ]
    mass: 6.940000
    reduced_to: 25
  - symbol: Li # 37
    coordinates: [  0.246799957663794,  0.008209254666413,  0.429958584647307 ]
    mass: 6.940000
    reduced_to: 37
  - symbol: Li # 38
    coordinates: [  0.580133290997127,  0.008209254666413,  0.429958584647307 ]
    mass: 6.940000
    reduced_to: 37
  - symbol: Li # 39
    coordinates: [  0.913466624330460,  0.008209254666413,  0.429958584647307 ]
    mass: 6.940000
    reduced_to: 37
  - symbol: Li # 40
    coordinates: [  0.246799957663794,  0.508209254666413,  0.429958584647307 ]
    mass: 6.940000
    reduced_to: 37
  - symbol: Li # 41
    coordinates: [  0.580133290997127,  0.508209254666413,  0.429958584647307 ]
    mass: 6.940000
    reduced_to: 37
  - symbol: Li # 42
    coordinates: [  0.913466624330460,  0.508209254666413,  0.429958584647307 ]
    mass: 6.940000
    reduced_to: 37
  - symbol: Li # 43
    coordinates: [  0.246799957663794,  0.008209254666413,  0.929958584647307 ]
    mass: 6.940000
    reduced_to: 37
  - symbol: Li # 44
    coordinates: [  0.580133290997127,  0.008209254666413,  0.929958584647307 ]
    mass: 6.940000
    reduced_to: 37
  - symbol: Li # 45
    coordinates: [  0.913466624330460,  0.008209254666413,  0.929958584647307 ]
    mass: 6.940000
    reduced_to: 37
  - symbol: Li # 46
    coordinates: [  0.246799957663794,  0.508209254666413,  0.929958584647307 ]
    mass: 6.940000
    reduced_to: 37
  - symbol: Li # 47
    coordinates: [  0.580133290997127,  0.508209254666413,  0.929958584647307 ]
    mass: 6.940000
    reduced_to: 37
  - symbol: Li # 48
    coordinates: [  0.913466624330460,  0.508209254666413,  0.929958584647307 ]
    mass: 6.940000
    reduced_to: 37
  - symbol: Ga # 49
    coordinates: [  0.050092172800194,  0.133217992047799,  0.341181626420745 ]
    mass: 69.723000
    reduced_to: 49
  - symbol: Ga # 50
    coordinates: [  0.383425506133528,  0.133217992047799,  0.341181626420745 ]
    mass: 69.723000
    reduced_to: 49
  - symbol: Ga # 51
    coordinates: [  0.716758839466861,  0.133217992047799,  0.341181626420745 ]
    mass: 69.723000
    reduced_to: 49
  - symbol: Ga # 52
    coordinates: [  0.050092172800194,  0.633217992047799,  0.341181626420745 ]
    mass: 69.723000
    reduced_to: 49
  - symbol: Ga # 53
    coordinates: [  0.383425506133528,  0.633217992047799,  0.341181626420745 ]
    mass: 69.723000
    reduced_to: 49
  - symbol: Ga # 54
    coordinates: [  0.716758839466861,  0.633217992047799,  0.341181626420745 ]
    mass: 69.723000
    reduced_to: 49
  - symbol: Ga # 55
    coordinates: [  0.050092172800194,  0.133217992047799,  0.841181626420745 ]
    mass: 69.723000
    reduced_to: 49
  - symbol: Ga # 56
    coordinates: [  0.383425506133528,  0.133217992047799,  0.841181626420745 ]
    mass: 69.723000
    reduced_to: 49
  - symbol: Ga # 57
    coordinates: [  0.716758839466861,  0.133217992047799,  0.841181626420745 ]
    mass: 69.723000
    reduced_to: 49
  - symbol: Ga # 58
    coordinates: [  0.050092172800194,  0.633217992047799,  0.841181626420745 ]
    mass: 69.723000
    reduced_to: 49
  - symbol: Ga # 59
    coordinates: [  0.383425506133528,  0.633217992047799,  0.841181626420745 ]
    mass: 69.723000
    reduced_to: 49
  - symbol: Ga # 60
    coordinates: [  0.716758839466861,  0.633217992047799,  0.841181626420745 ]
    mass: 69.723000
    reduced_to: 49
  - symbol: Ga # 61
    coordinates: [  0.185857494364661,  0.382539262784277,  0.245701280810897 ]
    mass: 69.723000
    reduced_to: 61
  - symbol: Ga # 62
    coordinates: [  0.519190827697994,  0.382539262784277,  0.245701280810897 ]
    mass: 69.723000
    reduced_to: 61
  - symbol: Ga # 63
    coordinates: [  0.852524161031327,  0.382539262784277,  0.245701280810897 ]
    mass: 69.723000
    reduced_to: 61
  - symbol: Ga # 64
    coordinates: [  0.185857494364661,  0.882539262784277,  0.245701280810897 ]
    mass: 69.723000
    reduced_to: 61
  - symbol: Ga # 65
    coordinates: [  0.519190827697994,  0.882539262784277,  0.245701280810897 ]
    mass: 69.723000
    reduced_to: 61
  - symbol: Ga # 66
    coordinates: [  0.852524161031327,  0.882539262784277,  0.245701280810897 ]
    mass: 69.723000
    reduced_to: 61
  - symbol: Ga # 67
    coordinates: [  0.185857494364661,  0.382539262784277,  0.745701280810897 ]
    mass: 69.723000
    reduced_to: 61
  - symbol: Ga # 68
    coordinates: [  0.519190827697994,  0.382539262784277,  0.745701280810897 ]
    mass: 69.723000
    reduced_to: 61
  - symbol: Ga # 69
    coordinates: [  0.852524161031327,  0.382539262784277,  0.745701280810897 ]
    mass: 69.723000
    reduced_to: 61
  - symbol: Ga # 70
    coordinates: [  0.185857494364661,  0.882539262784277,  0.745701280810897 ]
    mass: 69.723000
    reduced_to: 61
  - symbol: Ga # 71
    coordinates: [  0.519190827697994,  0.882539262784277,  0.745701280810897 ]
    mass: 69.723000
    reduced_to: 61
  - symbol: Ga # 72
    coordinates: [  0.852524161031327,  0.882539262784277,  0.745701280810897 ]
    mass: 69.723000
    reduced_to: 61
  - symbol: Ga # 73
    coordinates: [  0.050806072596400,  0.382999722777942,  0.340915534707202 ]
    mass: 69.723000
    reduced_to: 73
  - symbol: Ga # 74
    coordinates: [  0.384139405929734,  0.382999722777942,  0.340915534707202 ]
    mass: 69.723000
    reduced_to: 73
  - symbol: Ga # 75
    coordinates: [  0.717472739263067,  0.382999722777942,  0.340915534707202 ]
    mass: 69.723000
    reduced_to: 73
  - symbol: Ga # 76
    coordinates: [  0.050806072596400,  0.882999722777942,  0.340915534707202 ]
    mass: 69.723000
    reduced_to: 73
  - symbol: Ga # 77
    coordinates: [  0.384139405929734,  0.882999722777942,  0.340915534707202 ]
    mass: 69.723000
    reduced_to: 73
  - symbol: Ga # 78
    coordinates: [  0.717472739263067,  0.882999722777942,  0.340915534707202 ]
    mass: 69.723000
    reduced_to: 73
  - symbol: Ga # 79
    coordinates: [  0.050806072596400,  0.382999722777942,  0.840915534707202 ]
    mass: 69.723000
    reduced_to: 73
  - symbol: Ga # 80
    coordinates: [  0.384139405929734,  0.382999722777942,  0.840915534707202 ]
    mass: 69.723000
    reduced_to: 73
  - symbol: Ga # 81
    coordinates: [  0.717472739263067,  0.382999722777942,  0.840915534707202 ]
    mass: 69.723000
    reduced_to: 73
  - symbol: Ga # 82
    coordinates: [  0.050806072596400,  0.882999722777942,  0.840915534707202 ]
    mass: 69.723000
    reduced_to: 73
  - symbol: Ga # 83
    coordinates: [  0.384139405929734,  0.882999722777942,  0.840915534707202 ]
    mass: 69.723000
    reduced_to: 73
  - symbol: Ga # 84
    coordinates: [  0.717472739263067,  0.882999722777942,  0.840915534707202 ]
    mass: 69.723000
    reduced_to: 73
  - symbol: Ga # 85
    coordinates: [  0.185390698288708,  0.132429383844476,  0.245913291212511 ]
    mass: 69.723000
    reduced_to: 85
  - symbol: Ga # 86
    coordinates: [  0.518724031622041,  0.132429383844476,  0.245913291212511 ]
    mass: 69.723000
    reduced_to: 85
  - symbol: Ga # 87
    coordinates: [  0.852057364955374,  0.132429383844476,  0.245913291212511 ]
    mass: 69.723000
    reduced_to: 85
  - symbol: Ga # 88
    coordinates: [  0.185390698288708,  0.632429383844476,  0.245913291212511 ]
    mass: 69.723000
    reduced_to: 85
  - symbol: Ga # 89
    coordinates: [  0.518724031622041,  0.632429383844476,  0.245913291212511 ]
    mass: 69.723000
    reduced_to: 85
  - symbol: Ga # 90
    coordinates: [  0.852057364955374,  0.632429383844476,  0.245913291212511 ]
    mass: 69.723000
    reduced_to: 85
  - symbol: Ga # 91
    coordinates: [  0.185390698288708,  0.132429383844476,  0.745913291212511 ]
    mass: 69.723000
    reduced_to: 85
  - symbol: Ga # 92
    coordinates: [  0.518724031622041,  0.132429383844476,  0.745913291212511 ]
    mass: 69.723000
    reduced_to: 85
  - symbol: Ga # 93
    coordinates: [  0.852057364955374,  0.132429383844476,  0.745913291212511 ]
    mass: 69.723000
    reduced_to: 85
  - symbol: Ga # 94
    coordinates: [  0.185390698288708,  0.632429383844476,  0.745913291212511 ]
    mass: 69.723000
    reduced_to: 85
  - symbol: Ga # 95
    coordinates: [  0.518724031622041,  0.632429383844476,  0.745913291212511 ]
    mass: 69.723000
    reduced_to: 85
  - symbol: Ga # 96
    coordinates: [  0.852057364955374,  0.632429383844476,  0.745913291212511 ]
    mass: 69.723000
    reduced_to: 85
  - symbol: Sn # 97
    coordinates: [  0.118240601253442,  0.132385325187266,  0.042992088897018 ]
    mass: 118.710000
    reduced_to: 97
  - symbol: Sn # 98
    coordinates: [  0.451573934586775,  0.132385325187266,  0.042992088897018 ]
    mass: 118.710000
    reduced_to: 97
  - symbol: Sn # 99
    coordinates: [  0.784907267920109,  0.132385325187266,  0.042992088897018 ]
    mass: 118.710000
    reduced_to: 97
  - symbol: Sn # 100
    coordinates: [  0.118240601253442,  0.632385325187266,  0.042992088897018 ]
    mass: 118.710000
    reduced_to: 97
  - symbol: Sn # 101
    coordinates: [  0.451573934586775,  0.632385325187266,  0.042992088897018 ]
    mass: 118.710000
    reduced_to: 97
  - symbol: Sn # 102
    coordinates: [  0.784907267920109,  0.632385325187266,  0.042992088897018 ]
    mass: 118.710000
    reduced_to: 97
  - symbol: Sn # 103
    coordinates: [  0.118240601253442,  0.132385325187266,  0.542992088897018 ]
    mass: 118.710000
    reduced_to: 97
  - symbol: Sn # 104
    coordinates: [  0.451573934586775,  0.132385325187266,  0.542992088897018 ]
    mass: 118.710000
    reduced_to: 97
  - symbol: Sn # 105
    coordinates: [  0.784907267920109,  0.132385325187266,  0.542992088897018 ]
    mass: 118.710000
    reduced_to: 97
  - symbol: Sn # 106
    coordinates: [  0.118240601253442,  0.632385325187266,  0.542992088897018 ]
    mass: 118.710000
    reduced_to: 97
  - symbol: Sn # 107
    coordinates: [  0.451573934586775,  0.632385325187266,  0.542992088897018 ]
    mass: 118.710000
    reduced_to: 97
  - symbol: Sn # 108
    coordinates: [  0.784907267920109,  0.632385325187266,  0.542992088897018 ]
    mass: 118.710000
    reduced_to: 97
  - symbol: Sn # 109
    coordinates: [  0.118433744953307,  0.382339164221451,  0.042908408452610 ]
    mass: 118.710000
    reduced_to: 109
  - symbol: Sn # 110
    coordinates: [  0.451767078286640,  0.382339164221451,  0.042908408452610 ]
    mass: 118.710000
    reduced_to: 109
  - symbol: Sn # 111
    coordinates: [  0.785100411619973,  0.382339164221451,  0.042908408452610 ]
    mass: 118.710000
    reduced_to: 109
  - symbol: Sn # 112
    coordinates: [  0.118433744953307,  0.882339164221451,  0.042908408452610 ]
    mass: 118.710000
    reduced_to: 109
  - symbol: Sn # 113
    coordinates: [  0.451767078286640,  0.882339164221451,  0.042908408452610 ]
    mass: 118.710000
    reduced_to: 109
  - symbol: Sn # 114
    coordinates: [  0.785100411619973,  0.882339164221451,  0.042908408452610 ]
    mass: 118.710000
    reduced_to: 109
  - symbol: Sn # 115
    coordinates: [  0.118433744953307,  0.382339164221451,  0.542908408452610 ]
    mass: 118.710000
    reduced_to: 109
  - symbol: Sn # 116
    coordinates: [  0.451767078286640,  0.382339164221451,  0.542908408452610 ]
    mass: 118.710000
    reduced_to: 109
  - symbol: Sn # 117
    coordinates: [  0.785100411619973,  0.382339164221451,  0.542908408452610 ]
    mass: 118.710000
    reduced_to: 109
  - symbol: Sn # 118
    coordinates: [  0.118433744953307,  0.882339164221451,  0.542908408452610 ]
    mass: 118.710000
    reduced_to: 109
  - symbol: Sn # 119
    coordinates: [  0.451767078286640,  0.882339164221451,  0.542908408452610 ]
    mass: 118.710000
    reduced_to: 109
  - symbol: Sn # 120
    coordinates: [  0.785100411619973,  0.882339164221451,  0.542908408452610 ]
    mass: 118.710000
    reduced_to: 109

displacements:
- atom:    1
  displacement:
    [   0.0100000000000000,  0.0000000000000000,  0.0000000000000000 ]
  forces:
  - [  -0.0104183051735163, -0.0040456270799041,  0.0656151026487350 ]
  - [   0.0071006864309311, -0.0041266893967986,  0.0654906928539276 ]
  - [   0.0071074482984841, -0.0041395556181669,  0.0656119063496590 ]
  - [   0.0070551596581936, -0.0041354591958225,  0.0655501708388329 ]
  - [   0.0070695346221328, -0.0041349790990353,  0.0655526518821716 ]
  - [   0.0070684826932847, -0.0041350061073899,  0.0655523389577866 ]
  - [   0.0070786555297673, -0.0041354307904840,  0.0655014067888260 ]
  - [   0.0070768999867141, -0.0041352440603077,  0.0655623376369476 ]
  - [   0.0070776566863060, -0.0041340799070895,  0.0655997395515442 ]
  - [   0.0070755751803517, -0.0041341814212501,  0.0655579119920731 ]
  - [   0.0070788837037981, -0.0041339676827192,  0.0655520483851433 ]
  - [   0.0070783747360110, -0.0041339350864291,  0.0655503049492836 ]
  - [  -0.0016110036522150, -0.0145476292818785, -0.0653908774256706 ]
  - [  -0.0016112159937620, -0.0145488921552896, -0.0650243386626244 ]
  - [  -0.0013207551091909, -0.0145508507266641, -0.0652068555355072 ]
  - [  -0.0014824336394668, -0.0145509336143732, -0.0651853308081627 ]
  - [  -0.0014814939349890, -0.0145515147596598, -0.0652271360158920 ]
  - [  -0.0014684088528156, -0.0145507995039225, -0.0652058571577072 ]
  - [  -0.0009467098861933, -0.0145547557622194, -0.0652190744876862 ]
  - [  -0.0016793292015791, -0.0145406015217304, -0.0651799067854881 ]
  - [  -0.0016897656023502, -0.0145591218024492, -0.0652461796998978 ]
  - [  -0.0014780275523663, -0.0145502863451838, -0.0652046203613281 ]
  - [  -0.0014761723577976, -0.0145500041544437, -0.0652005076408386 ]
  - [  -0.0014767497777939, -0.0145514225587249, -0.0652092844247818 ]
  - [   0.0055880974978209,  0.0030313516035676,  0.0547477900981903 ]
  - [   0.0045305499807000,  0.0031777489930391,  0.0546317398548126 ]
  - [   0.0045289737172425,  0.0028864019550383,  0.0548603162169456 ]
  - [   0.0055915508419275,  0.0030492232181132,  0.0547535344958305 ]
  - [   0.0045321173965931,  0.0028869898524135,  0.0546284988522530 ]
  - [   0.0045298109762371,  0.0031829033978283,  0.0548639781773090 ]
  - [   0.0048150885850191,  0.0030195200815797,  0.0547274053096771 ]
  - [   0.0048144054599106,  0.0030311641748995,  0.0547434389591217 ]
  - [   0.0048149176873267,  0.0030499745626003,  0.0547645911574364 ]
  - [   0.0048149037174881,  0.0030471575446427,  0.0547259002923965 ]
  - [   0.0048140203580260,  0.0030356873758137,  0.0547449402511120 ]
  - [   0.0048142592422664,  0.0030156699940562,  0.0547670423984528 ]
  - [   0.0062534734606743, -0.0043413219973445, -0.0619053691625595 ]
  - [   0.0062532294541597, -0.0040991962887347, -0.0620826072990894 ]
  - [   0.0064126830548048, -0.0042191199027002, -0.0619943104684353 ]
  - [   0.0062488941475749, -0.0040985755622387, -0.0619080364704132 ]
  - [   0.0062484974041581, -0.0043416279368103, -0.0620846822857857 ]
  - [   0.0064131012186408, -0.0042198030278087, -0.0619943737983704 ]
  - [   0.0069469325244427, -0.0042204274795949, -0.0620005801320076 ]
  - [   0.0058078095316887, -0.0038964170962572, -0.0615986883640289 ]
  - [   0.0058359447866678, -0.0045230388641357, -0.0623674318194389 ]
  - [   0.0069492841139436, -0.0042136525735259, -0.0620036795735359 ]
  - [   0.0058278515934944, -0.0045364699326456, -0.0616134256124496 ]
  - [   0.0058561423793435, -0.0039220261387527, -0.0623543672263622 ]
  - [   0.0180742181837559,  0.0027446006424725, -0.0538552924990654 ]
  - [   0.0185567047446966,  0.0027549895457923, -0.0542320236563683 ]
  - [   0.0180751867592335,  0.0027425140142441, -0.0546031221747398 ]
  - [   0.0185380205512047,  0.0027904591988772, -0.0542303249239922 ]
  - [   0.0185263361781836,  0.0027431317139417, -0.0542307533323765 ]
  - [   0.0185389630496502,  0.0027022303547710, -0.0542273446917534 ]
  - [   0.0184476766735315,  0.0026495554484427, -0.0540821477770805 ]
  - [   0.0184464529156685,  0.0028243199922144, -0.0543612353503704 ]
  - [   0.0185202658176422,  0.0027355579659343, -0.0542256645858288 ]
  - [   0.0185148827731609,  0.0028257719241083, -0.0543445348739624 ]
  - [   0.0185130648314953,  0.0026672175154090, -0.0541119463741779 ]
  - [   0.0185584574937820,  0.0027471196372062, -0.0542295649647713 ]
  - [   0.0025987348053604, -0.0007877268944867,  0.0242413058876991 ]
  - [   0.0025414344854653,  0.0025502347853035,  0.0275853909552097 ]
  - [  -0.0002981040161103,  0.0009024748578668,  0.0259273499250412 ]
  - [  -0.0002079735277221,  0.0007524639950134,  0.0260552167892456 ]
  - [  -0.0002121899742633,  0.0010466057574376,  0.0258053876459599 ]
  - [  -0.0001579022500664,  0.0009000787395053,  0.0259318165481091 ]
  - [  -0.0001574256166350,  0.0009112309198827,  0.0259359106421471 ]
  - [  -0.0002243295020889,  0.0008863703114912,  0.0259694829583168 ]
  - [  -0.0002216086431872,  0.0009343321435153,  0.0258761309087276 ]
  - [  -0.0002010327298194,  0.0008992389193736,  0.0259325541555882 ]
  - [  -0.0001859900075942,  0.0009043746395037,  0.0259192660450935 ]
  - [  -0.0001886781828944,  0.0008929669857025,  0.0259423404932022 ]
  - [  -0.0094955433160067, -0.0009910510852933, -0.0464655011892319 ]
  - [  -0.0089974831789732, -0.0009824675507843, -0.0468352064490318 ]
  - [  -0.0095063820481300, -0.0009973431006074, -0.0472189113497734 ]
  - [  -0.0090284179896116, -0.0010301745496690, -0.0468461625277996 ]
  - [  -0.0090438900515437, -0.0009934732224792, -0.0468428917229176 ]
  - [  -0.0090258084237576, -0.0009521924657747, -0.0468399710953236 ]
  - [  -0.0091253267601132, -0.0009048280771822, -0.0467085167765617 ]
  - [  -0.0091251619160175, -0.0010805446654558, -0.0469718985259533 ]
  - [  -0.0090527776628733, -0.0009929835796356, -0.0468457937240601 ]
  - [  -0.0090490486472845, -0.0010688157053664, -0.0469580665230751 ]
  - [  -0.0090521266683936, -0.0009183501824737, -0.0467246249318123 ]
  - [  -0.0090040303766727, -0.0009951447136700, -0.0468430966138840 ]
  - [  -0.0052423188462853,  0.0045967008918524,  0.0178959369659424 ]
  - [  -0.0051919682882726,  0.0013340145815164,  0.0212274678051472 ]
  - [  -0.0080438768491149,  0.0029866239055991,  0.0195442289113998 ]
  - [  -0.0079619064927101,  0.0031312080100179,  0.0196719616651535 ]
  - [  -0.0079629914835095,  0.0028405219782144,  0.0194205120205879 ]
  - [  -0.0079131340608001,  0.0029902243986726,  0.0195447914302349 ]
  - [  -0.0078970771282911,  0.0029879026114941,  0.0195515453815460 ]
  - [  -0.0079678166657686,  0.0030136271379888,  0.0195874087512493 ]
  - [  -0.0079642599448562,  0.0029654172249138,  0.0194963477551937 ]
  - [  -0.0079519171267748,  0.0029868842102587,  0.0195471830666065 ]
  - [  -0.0079373195767403,  0.0029816213063896,  0.0195338875055313 ]
  - [  -0.0079401116818190,  0.0029951485339552,  0.0195545218884945 ]
  - [  -0.0038343206979334,  0.0062363632023335,  0.0355094522237778 ]
  - [  -0.0037603361997753,  0.0006168195977807,  0.0319714471697807 ]
  - [  -0.0062751676887274,  0.0034675421193242,  0.0337689034640789 ]
  - [  -0.0063409851863980,  0.0025686840526760,  0.0337106660008430 ]
  - [  -0.0063394643366337,  0.0043778717517853,  0.0338284261524677 ]
  - [  -0.0061747981235385,  0.0034660222008824,  0.0337686277925968 ]
  - [  -0.0062287724576890,  0.0034773978404701,  0.0337621942162514 ]
  - [  -0.0061718858778477,  0.0034610079601407,  0.0337570682168007 ]
  - [  -0.0062322011217475,  0.0034568347036839,  0.0337825343012810 ]
  - [  -0.0062331659719348,  0.0034487848170102,  0.0337555706501007 ]
  - [  -0.0062670633196831,  0.0034667244181037,  0.0337649509310722 ]
  - [  -0.0062298635020852,  0.0034733428619802,  0.0337848216295242 ]
  - [  -0.0094535164535046,  0.0079939477145672,  0.0305008348077536 ]
  - [  -0.0094037614762783,  0.0135840410366654,  0.0269319228827953 ]
  - [  -0.0119185019284487,  0.0107618803158402,  0.0287308916449547 ]
  - [  -0.0119847338646650,  0.0116444174200296,  0.0286720581352711 ]
  - [  -0.0119861438870430,  0.0098657701164484,  0.0287875644862652 ]
  - [  -0.0118175446987152,  0.0107631264254451,  0.0287287030369043 ]
  - [  -0.0118726585060358,  0.0107530336827040,  0.0287223458290100 ]
  - [  -0.0118186809122562,  0.0107693336904049,  0.0287192631512880 ]
  - [  -0.0118766836822033,  0.0107767423614860,  0.0287446752190590 ]
  - [  -0.0118778012692928,  0.0107803409919143,  0.0287165455520153 ]
  - [  -0.0119108632206917,  0.0107619436457753,  0.0287244003266096 ]
  - [  -0.0118750669062138,  0.0107542537152767,  0.0287444554269314 ]
- atom:    1
  displacement:
    [  -0.0100000000000000,  0.0000000000000000,  0.0000000000000000 ]
  forces:
  - [   0.0245764795690775, -0.0042253220453858,  0.0655061155557632 ]
  - [   0.0070460233837366, -0.0041412133723497,  0.0656121894717216 ]
  - [   0.0070528280921280, -0.0041279327124357,  0.0654897987842560 ]
  - [   0.0071001593023539, -0.0041341902688146,  0.0655557215213776 ]
  - [   0.0070869494229555, -0.0041342005133629,  0.0655521601438522 ]
  - [   0.0070857480168343, -0.0041339681483805,  0.0655530542135239 ]