# Thermal properties / unit cell (natom)

unit:
  temperature:   K
  free_energy:   kJ/mol
  entropy:       J/K/mol
  heat_capacity: J/K/mol

natom: 6    
cutoff_frequency: 0.00000
num_modes: 183600
num_integrated_modes: 183598

zero_point_energy:      22.7985413

thermal_properties:
- temperature:         0.0000000
  free_energy:        22.7985413
  entropy:             0.0000000
  heat_capacity:       0.0000000
  energy:             22.7985413

- temperature:        10.0000000
  free_energy:        22.7969462
  entropy:             0.6443970
  heat_capacity:       2.0486082
  energy:             22.8033901

- temperature:        20.0000000
  free_energy:        22.7726917
  entropy:             4.9315677
  heat_capacity:      12.5933516
  energy:             22.8713230

- temperature:        30.0000000
  free_energy:        22.6878323
  entropy:            12.3378229
  heat_capacity:      24.3366184
  energy:             23.0579670

- temperature:        40.0000000
  free_energy:        22.5231120
  entropy:            20.6465676
  heat_capacity:      33.4918361
  energy:             23.3489747

- temperature:        50.0000000
  free_energy:        22.2749647
  entropy:            28.9582500
  heat_capacity:      41.1530524
  energy:             23.7228772

- temperature:        60.0000000
  free_energy:        21.9445160
  entropy:            37.1044008
  heat_capacity:      48.4131114
  energy:             24.1707801

- temperature:        70.0000000
  free_energy:        21.5333354
  entropy:            45.1129271
  heat_capacity:      55.6897573
  energy:             24.6912403

- temperature:        80.0000000
  free_energy:        21.0425726
  entropy:            53.0258946
  heat_capacity:      62.9823481
  energy:             25.2846442

- temperature:        90.0000000
  free_energy:        20.4730803
  entropy:            60.8592405
  heat_capacity:      70.1323177
  energy:             25.9504119

- temperature:       100.0000000
  free_energy:        19.8256762
  entropy:            68.6056716
  heat_capacity:      76.9698531
  energy:             26.6862434

- temperature:       110.0000000
  free_energy:        19.1013212
  entropy:            76.2457043
  heat_capacity:      83.3712071
  energy:             27.4883487

- temperature:       120.0000000
  free_energy:        18.3011930
  entropy:            83.7565638
  heat_capacity:      89.2680195
  energy:             28.3519806

- temperature:       130.0000000
  free_energy:        17.4266906
  entropy:            91.1173644
  heat_capacity:      94.6375501
  energy:             29.2719480

- temperature:       140.0000000
  free_energy:        16.4794020
  entropy:            98.3114244
  heat_capacity:      99.4886522
  energy:             30.2430014

- temperature:       150.0000000
  free_energy:        15.4610581
  entropy:           105.3268493
  heat_capacity:     103.8494126
  energy:             31.2600855

- temperature:       160.0000000
  free_energy:        14.3734856
  entropy:           112.1562277
  heat_capacity:     107.7580057
  energy:             32.3184821

- temperature:       170.0000000
  free_energy:        13.2185660
  entropy:           118.7959577
  heat_capacity:     111.2565709
  energy:             33.4138788

- temperature:       180.0000000
  free_energy:        11.9982007
  entropy:           125.2454846
  heat_capacity:     114.3874136
  energy:             34.5423880

- temperature:       190.0000000
  free_energy:        10.7142846
  entropy:           131.5065865
  heat_capacity:     117.1908292
  energy:             35.7005360

- temperature:       200.0000000
  free_energy:         9.3686856
  entropy:           137.5827593
  heat_capacity:     119.7039883
  energy:             36.8852374

- temperature:       210.0000000
  free_energy:         7.9632302
  entropy:           143.4787164
  heat_capacity:     121.9604860
  energy:             38.0937607

- temperature:       220.0000000
  free_energy:         6.4996936
  entropy:           149.1999923
  heat_capacity:     123.9902834
  energy:             39.3236919

- temperature:       230.0000000
  free_energy:         4.9797925
  entropy:           154.7526383
  heat_capacity:     125.8198697
  energy:             40.5728993

- temperature:       240.0000000
  free_energy:         3.4051818
  entropy:           160.1429919
  heat_capacity:     127.4725343
  energy:             41.8394998

- temperature:       250.0000000
  free_energy:         1.7774521
  entropy:           165.3775057
  heat_capacity:     128.9686839
  energy:             43.1218286

- temperature:       260.0000000
  free_energy:         0.0981297
  entropy:           170.4626227
  heat_capacity:     130.3261671
  energy:             44.4184116

- temperature:       270.0000000
  free_energy:        -1.6313235
  entropy:           175.4046867
  heat_capacity:     131.5605832
  energy:             45.7279419

- temperature:       280.0000000
  free_energy:        -3.4095079
  entropy:           180.2098804
  heat_capacity:     132.6855671
  energy:             47.0492586

- temperature:       290.0000000
  free_energy:        -5.2350848
  entropy:           184.8841835
  heat_capacity:     133.7130451
  energy:             48.3813284

- temperature:       300.0000000
  free_energy:        -7.1067744
  entropy:           189.4333463
  heat_capacity:     134.6534602
  energy:             49.7232295

- temperature:       310.0000000
  free_energy:        -9.0233530
  entropy:           193.8628743
  heat_capacity:     135.5159703
  energy:             51.0741380

- temperature:       320.0000000
  free_energy:       -10.9836507
  entropy:           198.1780212
  heat_capacity:     136.3086189
  energy:             52.4333161

- temperature:       330.0000000
  free_energy:       -12.9865489
  entropy:           202.3837881
  heat_capacity:     137.0384846
  energy:             53.8001012

- temperature:       340.0000000
  free_energy:       -15.0309777
  entropy:           206.4849268
  heat_capacity:     137.7118080
  energy:             55.1738974

- temperature:       350.0000000
  free_energy:       -17.1159137
  entropy:           210.4859458
  heat_capacity:     138.3341024
  energy:             56.5541674

- temperature:       360.0000000
  free_energy:       -19.2403772
  entropy:           214.3911190
  heat_capacity:     138.9102485
  energy:             57.9404257

- temperature:       370.0000000
  free_energy:       -21.4034301
  entropy:           218.2044948
  heat_capacity:     139.4445760
  energy:             59.3322330

- temperature:       380.0000000
  free_energy:       -23.6041739
  entropy:           221.9299067
  heat_capacity:     139.9409335
  energy:             60.7291907

- temperature:       390.0000000
  free_energy:       -25.8417471
  entropy:           225.5709838
  heat_capacity:     140.4027492
  energy:             62.1309366

- temperature:       400.0000000
  free_energy:       -28.1153239
  entropy:           229.1311617
  heat_capacity:     140.8330833
  energy:             63.5371408

- temperature:       410.0000000
  free_energy:       -30.4241116
  entropy:           232.6136927
  heat_capacity:     141.2346724
  energy:             64.9475024

- temperature:       420.0000000
  free_energy:       -32.7673492
  entropy:           236.0216567
  heat_capacity:     141.6099691
  energy:             66.3617466

- temperature:       430.0000000
  free_energy:       -35.1443059
  entropy:           239.3579708
  heat_capacity:     141.9611756
  energy:             67.7796215

- temperature:       440.0000000
  free_energy:       -37.5542790
  entropy:           242.6253988
  heat_capacity:     142.2902728
  energy:             69.2008964

- temperature:       450.0000000
  free_energy:       -39.9965930
  entropy:           245.8265606
  heat_capacity:     142.5990463
  energy:             70.6253593

- temperature:       460.0000000
  free_energy:       -42.4705976
  entropy:           248.9639406
  heat_capacity:     142.8891080
  energy:             72.0528150

- temperature:       470.0000000
  free_energy:       -44.9756671
  entropy:           252.0398958
  heat_capacity:     143.1619162
  energy:             73.4830839

- temperature:       480.0000000
  free_energy:       -47.5111983
  entropy:           255.0566636
  heat_capacity:     143.4187920
  energy:             74.9160002

- temperature:       490.0000000
  free_energy:       -50.0766101
  entropy:           258.0163690
  heat_capacity:     143.6609346
  energy:             76.3514107

- temperature:       500.0000000
  free_energy:       -52.6713422
  entropy:           260.9210313
  heat_capacity:     143.8894338
  energy:             77.7891735

- temperature:       510.0000000
  free_energy:       -55.2948537
  entropy:           263.7725704
  heat_capacity:     144.1052824
  energy:             79.2291572

- temperature:       520.0000000
  free_energy:       -57.9466226
  entropy:           266.5728127
  heat_capacity:     144.3093853
  energy:             80.6712400

- temperature:       530.0000000
  free_energy:       -60.6261448
  entropy:           269.3234968
  heat_capacity:     144.5025694
  energy:             82.1153085

- temperature:       540.0000000
  free_energy:       -63.3329329
  entropy:           272.0262785
  heat_capacity:     144.6855905
  energy:             83.5612575

- temperature:       550.0000000
  free_energy:       -66.0665159
  entropy:           274.6827358
  heat_capacity:     144.8591414
  energy:             85.0089888

- temperature:       560.0000000
  free_energy:       -68.8264382
  entropy:           277.2943734
  heat_capacity:     145.0238572
  energy:             86.4584109

- temperature:       570.0000000
  free_energy:       -71.6122588
  entropy:           279.8626267
  heat_capacity:     145.1803214
  energy:             87.9094384

- temperature:       580.0000000
  free_energy:       -74.4235507
  entropy:           282.3888660
  heat_capacity:     145.3290706
  energy:             89.3619916

- temperature:       590.0000000
  free_energy:       -77.2599004
  entropy:           284.8744003
  heat_capacity:     145.4705988
  energy:             90.8159958

- temperature:       600.0000000
  free_energy:       -80.1209072
  entropy:           287.3204804
  heat_capacity:     145.6053617
  energy:             92.2713810

- temperature:       610.0000000
  free_energy:       -83.0061825
  entropy:           289.7283022
  heat_capacity:     145.7337798
  energy:             93.7280818

- temperature:       620.0000000
  free_energy:       -85.9153495
  entropy:           292.0990102
  heat_capacity:     145.8562417
  energy:             95.1860368

- temperature:       630.0000000
  free_energy:       -88.8480427
  entropy:           294.4336995
  heat_capacity:     145.9731071
  energy:             96.6451880

- temperature:       640.0000000
  free_energy:       -91.8039070
  entropy:           296.7334193
  heat_capacity:     146.0847091
  energy:             98.1054814

- temperature:       650.0000000
  free_energy:       -94.7825978
  entropy:           298.9991747
  heat_capacity:     146.1913565
  energy:             99.5668657

- temperature:       660.0000000
  free_energy:       -97.7837805
  entropy:           301.2319294
  heat_capacity:     146.2933362
  energy:            101.0292929

- temperature:       670.0000000
  free_energy:      -100.8071295
  entropy:           303.4326079
  heat_capacity:     146.3909146
  energy:            102.4927177

- temperature:       680.0000000
  free_energy:      -103.8523287
  entropy:           305.6020971
  heat_capacity:     146.4843395
  energy:            103.9570974

- temperature:       690.0000000
  free_energy:      -106.9190703
  entropy:           307.7412490
  heat_capacity:     146.5738418
  energy:            105.4223915

- temperature:       700.0000000
  free_energy:      -110.0070553
  entropy:           309.8508816
  heat_capacity:     146.6596365
  energy:            106.8885619

- temperature:       710.0000000
  free_energy:      -113.1159922
  entropy:           311.9317813
  heat_capacity:     146.7419242
  energy:            108.3555725

- temperature:       720.0000000
  free_energy:      -116.2455976
  entropy:           313.9847040
  heat_capacity:     146.8208924
  energy:            109.8233893

- temperature:       730.0000000
  free_energy:      -119.3955954
  entropy:           316.0103772
  heat_capacity:     146.8967160
  energy:            111.2919799

- temperature:       740.0000000
  free_energy:      -122.5657167
  entropy:           318.0095005
  heat_capacity:     146.9695588
  energy:            112.7613137

- temperature:       750.0000000
  free_energy:      -125.7556992
  entropy:           319.9827478
  heat_capacity:     147.0395742
  energy:            114.2313616

- temperature:       760.0000000
  free_energy:      -128.9652875
  entropy:           321.9307681
  heat_capacity:     147.1069057
  energy:            115.7020962

- temperature:       770.0000000
  free_energy:      -132.1942326
  entropy:           323.8541868
  heat_capacity:     147.1716881
  energy:            117.1734912

- temperature:       780.0000000
  free_energy:      -135.4422913
  entropy:           325.7536066
  heat_capacity:     147.2340477
  energy:            118.6455219

- temperature:       790.0000000
  free_energy:      -138.7092266
  entropy:           327.6296091
  heat_capacity:     147.2941032
  energy:            120.1181645

- temperature:       800.0000000
  free_energy:      -141.9948073
  entropy:           329.4827549
  heat_capacity:     147.3519661
  energy:            121.5913966

- temperature:       810.0000000
  free_energy:      -145.2988074
  entropy:           331.3135855
  heat_capacity:     147.4077414
  energy:            123.0651969

- temperature:       820.0000000
  free_energy:      -148.6210063
  entropy:           333.1226234
  heat_capacity:     147.4615278
  energy:            124.5395448

- temperature:       830.0000000
  free_energy:      -151.9611889
  entropy:           334.9103735
  heat_capacity:     147.5134182
  energy:            126.0144211

- temperature:       840.0000000
  free_energy:      -155.3191445
  entropy:           336.6773234
  heat_capacity:     147.5635005
  energy:            127.4898072

- temperature:       850.0000000
  free_energy:      -158.6946676
  entropy:           338.4239446
  heat_capacity:     147.6118571
  energy:            128.9656854

- temperature:       860.0000000
  free_energy:      -162.0875571
  entropy:           340.1506930
  heat_capacity:     147.6585662
  energy:            130.4420388

- temperature:       870.0000000
  free_energy:      -165.4976167
  entropy:           341.8580093
  heat_capacity:     147.7037014
  energy:            131.9188515

- temperature:       880.0000000
  free_energy:      -168.9246540
  entropy:           343.5463203
  heat_capacity:     147.7473324
  energy:            133.3961079

- temperature:       890.0000000
  free_energy:      -172.3684811
  entropy:           345.2160387
  heat_capacity:     147.7895250
  energy:            134.8737933

- temperature:       900.0000000
  free_energy:      -175.8289141
  entropy:           346.8675643
  heat_capacity:     147.8303414
  energy:            136.3518938

- temperature:       910.0000000
  free_energy:      -179.3057730
  entropy:           348.5012844
  heat_capacity:     147.8698406
  energy:            137.8303957

- temperature:       920.0000000
  free_energy:      -182.7988817
  entropy:           350.1175740
  heat_capacity:     147.9080786
  energy:            139.3092864

- temperature:       930.0000000
  free_energy:      -186.3080676
  entropy:           351.7167967
  heat_capacity:     147.9451081
  energy:            140.7885533

- temperature:       940.0000000
  free_energy:      -189.8331619
  entropy:           353.2993049
  heat_capacity:     147.9809795
  energy:            142.2681847

- temperature:       950.0000000
  free_energy:      -193.3739991
  entropy:           354.8654403
  heat_capacity:     148.0157402
  energy:            143.7481692

- temperature:       960.0000000
  free_energy:      -196.9304173
  entropy:           356.4155346
  heat_capacity:     148.0494357
  energy:            145.2284959

- temperature:       970.0000000
  free_energy:      -200.5022574
  entropy:           357.9499092
  heat_capacity:     148.0821087
  energy:            146.7091545

- temperature:       980.0000000
  free_energy:      -204.0893641
  entropy:           359.4688764
  heat_capacity:     148.1138002
  energy:            148.1901348

- temperature:       990.0000000
  free_energy:      -207.6915846
  entropy:           360.9727394
  heat_capacity:     148.1445488
  energy:            149.6714273

- temperature:      1000.0000000
  free_energy:      -211.3087695
  entropy:           362.4617923
  heat_capacity:     148.1743915
  energy:            151.1530228
