phonopy:
  version: "2.37.1"
  frequency_unit_conversion_factor: 15.633302
  symmetry_tolerance: 1.00000e-05

space_group:
  type: "Cm"
  number: 8
  Hall_symbol: "C -2y"

primitive_matrix:
- [ -1.000000000000000,  0.000000000000000, -0.000000000000000 ]
- [  0.000000000000000, -1.000000000000000,  0.000000000000000 ]
- [  0.000000000000000,  0.000000000000000,  1.000000000000000 ]

supercell_matrix:
- [   2,   0,   0 ]
- [   0,   2,   0 ]
- [   0,   0,   2 ]

primitive_cell:
  lattice:
  - [    -6.077585406449771,     0.000000000000000,     0.000000000000000 ] # a
  - [    -5.137577392473294,    -3.246896632270821,     0.000000000000000 ] # b
  - [     1.535817348816894,     0.444633592093114,     7.412224294580253 ] # c
  points:
  - symbol: Li # 1
    coordinates: [  0.012786850730975,  0.012786852666747,  0.015170312317503 ]
    mass: 6.940000
  - symbol: Li # 2
    coordinates: [  0.320981327906724,  0.320981350033420,  0.653748766750582 ]
    mass: 6.940000
  - symbol: Sn # 3
    coordinates: [  0.664294661632998,  0.664294674195265,  0.328699933257751 ]
    mass: 118.710000
  - symbol: Sn # 4
    coordinates: [  0.605791353840078,  0.605791330743032,  0.735132263904193 ]
    mass: 118.710000
  - symbol: Sn # 5
    coordinates: [  0.939040770059027,  0.939040740210967,  0.396479618555001 ]
    mass: 118.710000
  - symbol: Sn # 6
    coordinates: [  0.290438369965599,  0.290438385243156,  0.037435771735540 ]
    mass: 118.710000
  reciprocal_lattice: # without 2pi
  - [    -0.164539028762765,     0.260350756457524,     0.018475048439049 ] # a*
  - [    -0.000000000000000,    -0.307986398476941,     0.018475034379458 ] # b*
  - [    -0.000000000000000,    -0.000000000000000,     0.134912269280787 ] # c*

unit_cell:
  lattice:
  - [     6.077585406449769,     0.000000000000000,     0.000000000000000 ] # a
  - [     5.137577392473293,     3.246896632270820,     0.000000000000000 ] # b
  - [     1.535817348816894,     0.444633592093114,     7.412224294580249 ] # c
  points:
  - symbol: Li # 1
    coordinates: [  0.987213149269026,  0.987213147333254,  0.015170312317503 ]
    mass: 6.940000
    reduced_to: 1
  - symbol: Li # 2
    coordinates: [  0.679018672093276,  0.679018649966580,  0.653748766750582 ]
    mass: 6.940000
    reduced_to: 2
  - symbol: Sn # 3
    coordinates: [  0.335705338367002,  0.335705325804735,  0.328699933257751 ]
    mass: 118.710000
    reduced_to: 3
  - symbol: Sn # 4
    coordinates: [  0.394208646159922,  0.394208669256968,  0.735132263904194 ]
    mass: 118.710000
    reduced_to: 4
  - symbol: Sn # 5
    coordinates: [  0.060959229940973,  0.060959259789033,  0.396479618555001 ]
    mass: 118.710000
    reduced_to: 5
  - symbol: Sn # 6
    coordinates: [  0.709561630034401,  0.709561614756844,  0.037435771735540 ]
    mass: 118.710000
    reduced_to: 6

supercell:
  lattice:
  - [    12.155170812899538,     0.000000000000000,     0.000000000000000 ] # a
  - [    10.275154784946587,     6.493793264541639,     0.000000000000000 ] # b
  - [     3.071634697633787,     0.889267184186227,    14.824448589160498 ] # c
  points:
  - symbol: Li # 1
    coordinates: [  0.493606574634513,  0.493606573666627,  0.007585156158752 ]
    mass: 6.940000
    reduced_to: 1
  - symbol: Li # 2
    coordinates: [  0.993606574634513,  0.493606573666627,  0.007585156158752 ]
    mass: 6.940000
    reduced_to: 1
  - symbol: Li # 3
    coordinates: [  0.493606574634513,  0.993606573666627,  0.007585156158752 ]
    mass: 6.940000
    reduced_to: 1
  - symbol: Li # 4
    coordinates: [  0.993606574634513,  0.993606573666627,  0.007585156158752 ]
    mass: 6.940000
    reduced_to: 1
  - symbol: Li # 5
    coordinates: [  0.493606574634513,  0.493606573666627,  0.507585156158752 ]
    mass: 6.940000
    reduced_to: 1
  - symbol: Li # 6
    coordinates: [  0.993606574634513,  0.493606573666627,  0.507585156158752 ]
    mass: 6.940000
    reduced_to: 1
  - symbol: Li # 7
    coordinates: [  0.493606574634513,  0.993606573666627,  0.507585156158752 ]
    mass: 6.940000
    reduced_to: 1
  - symbol: Li # 8
    coordinates: [  0.993606574634513,  0.993606573666627,  0.507585156158752 ]
    mass: 6.940000
    reduced_to: 1
  - symbol: Li # 9
    coordinates: [  0.339509336046638,  0.339509324983290,  0.326874383375291 ]
    mass: 6.940000
    reduced_to: 9
  - symbol: Li # 10
    coordinates: [  0.839509336046638,  0.339509324983290,  0.326874383375291 ]
    mass: 6.940000
    reduced_to: 9
  - symbol: Li # 11
    coordinates: [  0.339509336046638,  0.839509324983290,  0.326874383375291 ]
    mass: 6.940000
    reduced_to: 9
  - symbol: Li # 12
    coordinates: [  0.839509336046638,  0.839509324983290,  0.326874383375291 ]
    mass: 6.940000
    reduced_to: 9
  - symbol: Li # 13
    coordinates: [  0.339509336046638,  0.339509324983290,  0.826874383375291 ]
    mass: 6.940000
    reduced_to: 9
  - symbol: Li # 14
    coordinates: [  0.839509336046638,  0.339509324983290,  0.826874383375291 ]
    mass: 6.940000
    reduced_to: 9
  - symbol: Li # 15
    coordinates: [  0.339509336046638,  0.839509324983290,  0.826874383375291 ]
    mass: 6.940000
    reduced_to: 9
  - symbol: Li # 16
    coordinates: [  0.839509336046638,  0.839509324983290,  0.826874383375291 ]
    mass: 6.940000
    reduced_to: 9
  - symbol: Sn # 17
    coordinates: [  0.167852669183501,  0.167852662902367,  0.164349966628876 ]
    mass: 118.710000
    reduced_to: 17
  - symbol: Sn # 18
    coordinates: [  0.667852669183501,  0.167852662902367,  0.164349966628876 ]
    mass: 118.710000
    reduced_to: 17
  - symbol: Sn # 19
    coordinates: [  0.167852669183501,  0.667852662902367,  0.164349966628876 ]
    mass: 118.710000
    reduced_to: 17
  - symbol: Sn # 20
    coordinates: [  0.667852669183501,  0.667852662902367,  0.164349966628876 ]
    mass: 118.710000
    reduced_to: 17
  - symbol: Sn # 21
    coordinates: [  0.167852669183501,  0.167852662902367,  0.664349966628876 ]
    mass: 118.710000
    reduced_to: 17
  - symbol: Sn # 22
    coordinates: [  0.667852669183501,  0.167852662902367,  0.664349966628876 ]
    mass: 118.710000
    reduced_to: 17
  - symbol: Sn # 23
    coordinates: [  0.167852669183501,  0.667852662902367,  0.664349966628876 ]
    mass: 118.710000
    reduced_to: 17
  - symbol: Sn # 24
    coordinates: [  0.667852669183501,  0.667852662902367,  0.664349966628876 ]
    mass: 118.710000
    reduced_to: 17
  - symbol: Sn # 25
    coordinates: [  0.197104323079961,  0.197104334628484,  0.367566131952097 ]
    mass: 118.710000
    reduced_to: 25
  - symbol: Sn # 26
    coordinates: [  0.697104323079961,  0.197104334628484,  0.367566131952097 ]
    mass: 118.710000
    reduced_to: 25
  - symbol: Sn # 27
    coordinates: [  0.197104323079961,  0.697104334628484,  0.367566131952097 ]
    mass: 118.710000
    reduced_to: 25
  - symbol: Sn # 28
    coordinates: [  0.697104323079961,  0.697104334628484,  0.367566131952097 ]
    mass: 118.710000
    reduced_to: 25
  - symbol: Sn # 29
    coordinates: [  0.197104323079961,  0.197104334628484,  0.867566131952097 ]
    mass: 118.710000
    reduced_to: 25
  - symbol: Sn # 30
    coordinates: [  0.697104323079961,  0.197104334628484,  0.867566131952097 ]
    mass: 118.710000
    reduced_to: 25
  - symbol: Sn # 31
    coordinates: [  0.197104323079961,  0.697104334628484,  0.867566131952097 ]
    mass: 118.710000
    reduced_to: 25
  - symbol: Sn # 32
    coordinates: [  0.697104323079961,  0.697104334628484,  0.867566131952097 ]
    mass: 118.710000
    reduced_to: 25
  - symbol: Sn # 33
    coordinates: [  0.030479614970486,  0.030479629894517,  0.198239809277500 ]
    mass: 118.710000
    reduced_to: 33
  - symbol: Sn # 34
    coordinates: [  0.530479614970486,  0.030479629894517,  0.198239809277500 ]
    mass: 118.710000
    reduced_to: 33
  - symbol: Sn # 35
    coordinates: [  0.030479614970486,  0.530479629894517,  0.198239809277500 ]
    mass: 118.710000
    reduced_to: 33
  - symbol: Sn # 36
    coordinates: [  0.530479614970486,  0.530479629894517,  0.198239809277500 ]
    mass: 118.710000
    reduced_to: 33
  - symbol: Sn # 37
    coordinates: [  0.030479614970486,  0.030479629894517,  0.698239809277500 ]
    mass: 118.710000
    reduced_to: 33
  - symbol: Sn # 38
    coordinates: [  0.530479614970486,  0.030479629894517,  0.698239809277500 ]
    mass: 118.710000
    reduced_to: 33
  - symbol: Sn # 39
    coordinates: [  0.030479614970486,  0.530479629894517,  0.698239809277500 ]
    mass: 118.710000
    reduced_to: 33
  - symbol: Sn # 40
    coordinates: [  0.530479614970486,  0.530479629894517,  0.698239809277500 ]
    mass: 118.710000
    reduced_to: 33
  - symbol: Sn # 41
    coordinates: [  0.354780815017201,  0.354780807378422,  0.018717885867770 ]
    mass: 118.710000
    reduced_to: 41
  - symbol: Sn # 42
    coordinates: [  0.854780815017200,  0.354780807378422,  0.018717885867770 ]
    mass: 118.710000
    reduced_to: 41
  - symbol: Sn # 43
    coordinates: [  0.354780815017201,  0.854780807378422,  0.018717885867770 ]
    mass: 118.710000
    reduced_to: 41
  - symbol: Sn # 44
    coordinates: [  0.854780815017200,  0.854780807378422,  0.018717885867770 ]
    mass: 118.710000
    reduced_to: 41
  - symbol: Sn # 45
    coordinates: [  0.354780815017201,  0.354780807378422,  0.518717885867770 ]
    mass: 118.710000
    reduced_to: 41
  - symbol: Sn # 46
    coordinates: [  0.854780815017200,  0.354780807378422,  0.518717885867770 ]
    mass: 118.710000
    reduced_to: 41
  - symbol: Sn # 47
    coordinates: [  0.354780815017201,  0.854780807378422,  0.518717885867770 ]
    mass: 118.710000
    reduced_to: 41
  - symbol: Sn # 48
    coordinates: [  0.854780815017200,  0.854780807378422,  0.518717885867770 ]
    mass: 118.710000
    reduced_to: 41

displacements:
- atom:    1
  displacement:
    [   0.0100000000000000,  0.0000000000000000,  0.0000000000000000 ]
  forces:
  - [   0.0111861824989319,  0.0068738455884159,  0.0065839379094541 ]
  - [   0.0253935120999813,  0.0078434208407998,  0.0088853407651186 ]
  - [   0.0259096100926399,  0.0070370389148593,  0.0089397858828306 ]
  - [   0.0269607938826084,  0.0070133488625288,  0.0090762199833989 ]
  - [   0.0268320962786674,  0.0077838362194598,  0.0088652502745390 ]
  - [   0.0268461816012859,  0.0077703068964183,  0.0089194057509303 ]
  - [   0.0268448740243912,  0.0077736685052514,  0.0089215189218521 ]
  - [   0.0268741976469755,  0.0077643464319408,  0.0089134909212589 ]
  - [  -0.0142250359058380, -0.0042247655801475, -0.0082648843526840 ]
  - [  -0.0144769363105297, -0.0040018172003329, -0.0085729928687215 ]
  - [  -0.0143457949161530, -0.0043243840336800, -0.0085300831124187 ]
  - [  -0.0143648460507393, -0.0040608183480799, -0.0081861224025488 ]
  - [  -0.0138053223490715, -0.0040150014683604, -0.0082475440576673 ]
  - [  -0.0140826143324375, -0.0042335791513324, -0.0091455150395632 ]
  - [  -0.0142671111971140, -0.0041518821381032, -0.0088139437139034 ]
  - [  -0.0149629004299641, -0.0042283744551241, -0.0086908387020230 ]
  - [  -0.0056781535968184, -0.0015880963765085, -0.0146740116178989 ]
  - [  -0.0051302700303495, -0.0006611184217036, -0.0154715608805418 ]
  - [  -0.0038388252723962, -0.0027356157079339, -0.0166237503290176 ]
  - [  -0.0054199509322643, -0.0016262310091406, -0.0144732361659408 ]
  - [  -0.0054178969003260, -0.0015475575346500, -0.0142646059393883 ]
  - [  -0.0053971381857991, -0.0016455631703138, -0.0144134527072310 ]
  - [  -0.0054518529213965, -0.0014699990861118, -0.0143593456596136 ]
  - [  -0.0052743009291589, -0.0015325353015214, -0.0142837800085545 ]
  - [  -0.0340256318449974, -0.0098403040319681, -0.0110806170850992 ]
  - [  -0.0340671204030514, -0.0099142221733928, -0.0111103039234877 ]
  - [  -0.0340978577733040, -0.0098219159990549, -0.0111007019877434 ]
  - [  -0.0339862629771233, -0.0098490910604596, -0.0112187191843987 ]
  - [  -0.0343162640929222, -0.0098704565316439, -0.0108585581183434 ]
  - [  -0.0332901254296303, -0.0074818581342697, -0.0091746933758259 ]
  - [  -0.0308407675474882, -0.0121654048562050, -0.0081943795084953 ]
  - [  -0.0335049144923687, -0.0097672324627638, -0.0112272724509239 ]
  - [  -0.0180359743535519, -0.0052513815462589,  0.0170570593327284 ]
  - [  -0.0179707184433937, -0.0052303196862340,  0.0171796437352896 ]
  - [  -0.0181089602410793, -0.0052116941660643,  0.0171982478350401 ]
  - [  -0.0167744159698486, -0.0048309359699488,  0.0187286194413900 ]
  - [  -0.0179215632379055, -0.0052541512995958,  0.0172036010771990 ]
  - [  -0.0177793204784393, -0.0051809791475534,  0.0170679986476898 ]
  - [  -0.0177703350782394, -0.0051112994551659,  0.0170828178524971 ]
  - [  -0.0178196132183075, -0.0051070544868708,  0.0171421114355326 ]
  - [   0.0480527132749557,  0.0139226876199245,  0.0076888129115105 ]
  - [   0.0503870025277138,  0.0120377941057086,  0.0081331841647625 ]
  - [   0.0478803664445877,  0.0155452452600002,  0.0081309117376804 ]
  - [   0.0445634499192238,  0.0128280650824308,  0.0079026222229004 ]
  - [   0.0446837432682514,  0.0129548795521259,  0.0078841224312782 ]
  - [   0.0446746572852135,  0.0129197183996439,  0.0078170411288738 ]
  - [   0.0446804240345955,  0.0129504594951868,  0.0078143551945686 ]
  - [   0.0446790046989918,  0.0129170157015324,  0.0078448466956615 ]
- atom:    1
  displacement:
    [  -0.0100000000000000,  0.0000000000000000,  0.0000000000000000 ]
  forces:
  - [   0.0422970876097679,  0.0086225317791104,  0.0112232323735952 ]
  - [   0.0283386334776878,  0.0076979557052255,  0.0089135766029358 ]
  - [   0.0278190635144711,  0.0085309389978647,  0.0088610146194696 ]
  - [   0.0267512910068035,  0.0085342321544886,  0.0087195755913854 ]
  - [   0.0268869921565056,  0.0077689918689430,  0.0089348722249269 ]
  - [   0.0268740244209766,  0.0077821677550673,  0.0088811414316297 ]
  - [   0.0268765315413475,  0.0077790599316359,  0.0088811209425330 ]
  - [   0.0268469080328941,  0.0077869859524071,  0.0088879093527794 ]
  - [  -0.0143825467675924, -0.0040572863072157, -0.0085429456084967 ]
  - [  -0.0141311381012201, -0.0042768418788910, -0.0082384012639523 ]
  - [  -0.0142601728439331, -0.0039604171179235, -0.0082793692126870 ]
  - [  -0.0142391566187143, -0.0042234249413013, -0.0086306817829609 ]
  - [  -0.0147642232477665, -0.0042569804936647, -0.0085315518081188 ]
  - [  -0.0145204346626997, -0.0040478389710188, -0.0076631861738861 ]
  - [  -0.0143341794610023, -0.0041279308497906, -0.0079897101968527 ]
  - [  -0.0136441010981798, -0.0040523251518607, -0.0081151537597179 ]
  - [  -0.0049806525930762, -0.0014965655282140, -0.0139184612780809 ]
  - [  -0.0055106123909354, -0.0024211590643972, -0.0131239406764507 ]
  - [  -0.0068352692760527, -0.0003153782454319, -0.0119172539561987 ]
  - [  -0.0052365232259035, -0.0014591396320611, -0.0141098015010357 ]
  - [  -0.0052376408129930, -0.0015358789823949, -0.0143274739384651 ]
  - [  -0.0052574127912521, -0.0014403292443603, -0.0141723500564694 ]
  - [  -0.0051999394781888, -0.0016143922694027, -0.0142251560464501 ]
  - [  -0.0053828144446015, -0.0015530935488641, -0.0143035389482975 ]
  - [  -0.0340790562331676, -0.0098769934847951, -0.0112424381077290 ]
  - [  -0.0340367853641510, -0.0098012685775757, -0.0112153850495815 ]
  - [  -0.0340046882629395, -0.0098972832784057, -0.0112244375050068 ]
  - [  -0.0341201461851597, -0.0098667107522488, -0.0111069325357676 ]
  - [  -0.0337949283421040, -0.0098443292081356, -0.0114551037549973 ]
  - [  -0.0347868129611015, -0.0122429262846708, -0.0131625831127167 ]
  - [  -0.0373025089502335, -0.0074952337890863, -0.0142146386206150 ]
  - [  -0.0345537960529327, -0.0099374912679195, -0.0111283808946609 ]
  - [  -0.0176695398986340, -0.0050768069922924,  0.0172341410070658 ]
  - [  -0.0177208110690117, -0.0051034912467003,  0.0171187724918127 ]
  - [  -0.0175821781158447, -0.0051217563450336,  0.0170996002852917 ]
  - [  -0.0188945978879929, -0.0054940544068813,  0.0156126981601119 ]
  - [  -0.0177732296288013, -0.0050808778032660,  0.0170986913144588 ]
  - [  -0.0179129615426064, -0.0051543628796935,  0.0172327477484941 ]
  - [  -0.0179268084466457, -0.0052219256758690,  0.0172181744128466 ]
  - [  -0.0178759992122650, -0.0052275359630585,  0.0171528421342373 ]
  - [   0.0410980731248856,  0.0118814110755920,  0.0079455487430096 ]
  - [   0.0391735695302486,  0.0137638449668884,  0.0074952356517315 ]
  - [   0.0415150597691536,  0.0103943087160587,  0.0074934214353561 ]
  - [   0.0448343157768250,  0.0130200069397688,  0.0077215805649757 ]
  - [   0.0446547977626324,  0.0129094952717423,  0.0077347159385681 ]
  - [   0.0446651764214039,  0.0129448911175132,  0.0078015625476837 ]
  - [   0.0446583814918995,  0.0129160564392805,  0.0078042931854725 ]
  - [   0.0446617826819420,  0.0129491463303566,  0.0077724419534206 ]
- atom:    1
  displacement:
    [   0.0020254199203553,  0.0005863781493146,  0.0097751641833902 ]
  forces:
  - [   0.0214752219617367,  0.0062176026403904, -0.0042677037417889 ]
  - [   0.0265555027872324,  0.0078917555510998,  0.0089921001344919 ]
  - [   0.0266641676425934,  0.0075156837701797,  0.0089926915243268 ]
  - [   0.0270137339830399,  0.0078198565170169,  0.0086038671433926 ]
  - [   0.0268198139965534,  0.0077648740261793,  0.0088342223316431 ]
  - [   0.0268755443394184,  0.0077822566963732,  0.0088764000684023 ]
  - [   0.0268771015107632,  0.0077795926481485,  0.0088774915784597 ]
  - [   0.0268746707588434,  0.0077797309495509,  0.0089431498199701 ]
  - [  -0.0142735112458467, -0.0041323979385197, -0.0084945391863585 ]
  - [  -0.0146876405924559, -0.0039928192272782, -0.0087065054103732 ]
  - [  -0.0145491305738688, -0.0044714142568409, -0.0087055712938309 ]
  - [  -0.0140752326697111, -0.0040745679289103, -0.0087804114446044 ]
  - [  -0.0141030550003052, -0.0040824608877301, -0.0083618015050888 ]
  - [  -0.0146538913249969, -0.0040837544947863, -0.0078377863392234 ]
  - [  -0.0145689956843853, -0.0043760496191680, -0.0078374408185482 ]
  - [  -0.0153906941413879, -0.0044551645405591, -0.0088217090815306 ]
  - [  -0.0055820886045694, -0.0016165450215340, -0.0145166805014014 ]
  - [  -0.0064217927865684, -0.0039460659027100, -0.0116902273148298 ]
  - [  -0.0075362380594015, -0.0000941029866226, -0.0116910953074694 ]
  - [  -0.0054881274700165, -0.0015885747270659, -0.0143334716558456 ]
  - [  -0.0052968128584325, -0.0015327103901654, -0.0144694624468684 ]
  - [  -0.0055005084723234, -0.0017160491552204, -0.0145028643310070 ]
  - [  -0.0055653816089034, -0.0014881603419781, -0.0145020280033350 ]
  - [  -0.0053311842493713, -0.0015440104762092, -0.0143237803131342 ]
  - [  -0.0339795090258121, -0.0098376348614693, -0.0111186280846596 ]
  - [  -0.0340898968279362, -0.0098142717033625, -0.0114413779228926 ]
  - [  -0.0340601243078709, -0.0099165318533778, -0.0114409625530243 ]
  - [  -0.0340295694768429, -0.0098511511459947, -0.0111180637031794 ]
  - [  -0.0341490581631660, -0.0098867015913129, -0.0112410876899958 ]
  - [  -0.0321076437830925, -0.0057828030548990, -0.0078333597630262 ]
  - [  -0.0302316676825285, -0.0122651299461722, -0.0078355576843023 ]
  - [  -0.0342939272522926, -0.0099283847957850, -0.0108769126236439 ]
  - [  -0.0179781205952168, -0.0052045872434974,  0.0168869532644749 ]
  - [  -0.0175376534461975, -0.0050141587853432,  0.0171062722802162 ]
  - [  -0.0175036452710629, -0.0051317084580660,  0.0171050354838371 ]
  - [  -0.0156375057995319, -0.0045268964022398,  0.0203519947826862 ]
  - [  -0.0178795382380486, -0.0051766186952591,  0.0172892790287733 ]
  - [  -0.0177999660372734, -0.0051867868751287,  0.0171286128461361 ]
  - [  -0.0178193077445030, -0.0051257144659758,  0.0171284135431051 ]
  - [  -0.0180102437734604, -0.0052142627537251,  0.0168413333594799 ]
  - [   0.0456429459154606,  0.0132129229605198,  0.0074950158596039 ]
  - [   0.0462830290198326,  0.0126255061477423,  0.0079791955649853 ]
  - [   0.0458708442747593,  0.0140536129474640,  0.0079800486564636 ]
  - [   0.0444756820797920,  0.0128769297152758,  0.0078909322619438 ]
  - [   0.0446770042181015,  0.0129347210749984,  0.0078799873590469 ]
  - [   0.0446885004639626,  0.0129196057096124,  0.0078197419643402 ]
  - [   0.0446784794330597,  0.0129539575427771,  0.0078196525573730 ]
  - [   0.0446593761444092,  0.0129295615479350,  0.0079266577959061 ]
- atom:    1
  displacement:
    [  -0.0020254199203553, -0.0005863781493146, -0.0097751641833902 ]
  forces:
  - [   0.0324126407504082,  0.0093834754079580,  0.0220274720340967 ]
  - [   0.0271706599742174,  0.0076611461117864,  0.0088093588128686 ]
  - [   0.0270611289888620,  0.0080392863601446,  0.0088101029396057 ]
  - [   0.0267116837203503,  0.0077326791360974,  0.0091982334852219 ]
  - [   0.0268980842083693,  0.0077876285649836,  0.0089634321630001 ]
  - [   0.0268445052206516,  0.0077702272683382,  0.0089238537475467 ]
  - [   0.0268444009125233,  0.0077731851488352,  0.0089249135926366 ]
  - [   0.0268454197794199,  0.0077713304199278,  0.0088572353124619 ]
  - [  -0.0143342725932598, -0.0041499692015350, -0.0083070080727339 ]
  - [  -0.0139282494783401, -0.0042822607792914, -0.0081052808091044 ]
  - [  -0.0140618067234755, -0.0038209641352296, -0.0081045608967543 ]
  - [  -0.0145208276808262, -0.0042036464437842, -0.0080440761521459 ]
  - [  -0.0144703909754753, -0.0041888114064932, -0.0084160938858986 ]
  - [  -0.0139415971934795, -0.0042036669328809, -0.0089725609868765 ]
  - [  -0.0140309464186430, -0.0038938927464187, -0.0089718867093325 ]
  - [  -0.0132013503462076, -0.0038211834616959, -0.0079836789518595 ]
  - [  -0.0050731413066387, -0.0014692558906972, -0.0140728950500488 ]
  - [  -0.0042725652456284,  0.0007820376195014, -0.0168390497565269 ]
  - [  -0.0031932266429067, -0.0029423574451357, -0.0168405734002590 ]
  - [  -0.0051726987585425, -0.0014972833450884, -0.0142527762800455 ]
  - [  -0.0053591197356582, -0.0015511151868850, -0.0141182169318199 ]
  - [  -0.0051509779877961, -0.0013697710819542, -0.0140779372304678 ]
  - [  -0.0050849355757236, -0.0015940954908729, -0.0140772406011820 ]
  - [  -0.0053244167938828, -0.0015418310649693, -0.0142681924626231 ]
  - [  -0.0341254994273186, -0.0098799671977758, -0.0112054869532585 ]
  - [  -0.0340148657560349, -0.0098996106535196, -0.0108875520527363 ]
  - [  -0.0340422615408897, -0.0098041482269764, -0.0108870361000299 ]
  - [  -0.0340756624937057, -0.0098642688244581, -0.0112059228122234 ]
  - [  -0.0339525043964386, -0.0098294857889414, -0.0110880397260189 ]
  - [  -0.0360596068203449, -0.0140676926821470, -0.0145941656082869 ]
  - [  -0.0379977300763130, -0.0073729078285396, -0.0145960655063391 ]
  - [  -0.0338066071271896, -0.0097874458879232, -0.0114505048841238 ]
  - [  -0.0177295431494713, -0.0051327850669622,  0.0173889473080635 ]
  - [  -0.0181528069078922, -0.0053174505010247,  0.0171923004090786 ]
  - [  -0.0181857198476791, -0.0052040424197912,  0.0171911641955376 ]
  - [  -0.0199444591999054, -0.0057739373296499,  0.0141279958188534 ]
  - [  -0.0178190730512142, -0.0051591731607914,  0.0170096922665834 ]
  - [  -0.0178940296173096, -0.0051462743431330,  0.0171724334359169 ]
  - [  -0.0178770683705807, -0.0052102282643318,  0.0171723440289497 ]
  - [  -0.0176820196211338, -0.0051191970705986,  0.0174571257084608 ]
  - [   0.0436900146305561,  0.0126475878059864,  0.0081289112567902 ]
  - [   0.0430326126515865,  0.0132367098703980,  0.0076247006654739 ]
  - [   0.0434488803148270,  0.0118002276867628,  0.0076252557337284 ]
  - [   0.0448645055294037,  0.0129893813282251,  0.0077362842857838 ]
  - [   0.0446612685918808,  0.0129302144050598,  0.0077377296984196 ]
  - [   0.0446519516408443,  0.0129447784274817,  0.0077980607748032 ]
  - [   0.0446608774363995,  0.0129129849374294,  0.0077980272471905 ]
  - [   0.0446813590824604,  0.0129358237609267,  0.0076912567019463 ]
- atom:    9
  displacement:
    [   0.0100000000000000,  0.0000000000000000,  0.0000000000000000 ]
  forces:
  - [   0.0269405972212553,  0.0076922173611820,  0.0089202998206019 ]
  - [   0.0266891941428185,  0.0078012263402343,  0.0085487551987171 ]
  - [   0.0268186181783676,  0.0077080461196601,  0.0086655439808965 ]
  - [   0.0267973020672798,  0.0078589310869575,  0.0091409310698509 ]
  - [   0.0273184999823570,  0.0078914258629084,  0.0089679080992937 ]
  - [   0.0270808320492506,  0.0074726175516844,  0.0085118114948273 ]
  - [   0.0268978625535965,  0.0079769212752581,  0.0086092632263899 ]
  - [   0.0261976160109043,  0.0076888045296073,  0.0079124784097075 ]
  - [  -0.0265349298715591, -0.0049739177338779, -0.0137920109555125 ]
  - [  -0.0155966039747000, -0.0042008953168988, -0.0084351589903235 ]
  - [  -0.0152554828673601, -0.0047303065657616, -0.0084784068167210 ]
  - [  -0.0143763571977615, -0.0051621319726110, -0.0081936977803707 ]
  - [  -0.0142849572002888, -0.0041412515565753, -0.0084259370341897 ]
  - [  -0.0143097024410963, -0.0041403984650970, -0.0083845313638449 ]
  - [  -0.0143070332705975, -0.0041436292231083, -0.0083896312862635 ]
  - [  -0.0142685510218143, -0.0041240681894124, -0.0083799539133906 ]
  - [  -0.0055480380542576, -0.0016514705494046, -0.0144852250814438 ]
  - [  -0.0044463481754065, -0.0022800632286817, -0.0161998663097620 ]
  - [  -0.0053943665698171, -0.0009405472083017, -0.0152834374457598 ]
  - [  -0.0056936386972666, -0.0016415510326624, -0.0144558111205697 ]
  - [  -0.0053313286043704, -0.0015497766435146, -0.0143114086240530 ]
  - [  -0.0055176378227770, -0.0014628306962550, -0.0144086284562945 ]
  - [  -0.0054139122366905, -0.0016821851022542, -0.0143883321434259 ]
  - [  -0.0054142712615430, -0.0015432283980772, -0.0142060006037354 ]
  - [  -0.0310438927263021, -0.0090290475636721, -0.0109096206724644 ]
  - [  -0.0295375324785709, -0.0112391132861376, -0.0099517665803432 ]
  - [  -0.0317428782582283, -0.0071192262694240, -0.0104186963289976 ]
  - [  -0.0336639881134033, -0.0099078426137567, -0.0115540176630020 ]
  - [  -0.0340553522109985, -0.0098558664321899, -0.0111387670040131 ]
  - [  -0.0340820997953415, -0.0098708700388670, -0.0111622996628284 ]
  - [  -0.0340698286890984, -0.0098600611090660, -0.0111665576696396 ]
  - [  -0.0340509638190269, -0.0098617160692811, -0.0111540555953979 ]
  - [  -0.0179138965904713, -0.0052071139216423,  0.0171054955571890 ]
  - [  -0.0166830457746983, -0.0037546232342720,  0.0190464910119772 ]
  - [  -0.0148924738168716, -0.0061979517340660,  0.0200977027416229 ]
  - [  -0.0178542546927929, -0.0050978995859623,  0.0172389578074217 ]
  - [  -0.0178129151463509, -0.0051569435745478,  0.0172537975013256 ]
  - [  -0.0178482271730900, -0.0051648113876581,  0.0171017628163099 ]
  - [  -0.0178842470049858, -0.0051706451922655,  0.0171207282692194 ]
  - [  -0.0178276486694813, -0.0051615461707115,  0.0170475579798222 ]
  - [   0.0445618480443954,  0.0129320677369833,  0.0076689310371876 ]
  - [   0.0447469577193260,  0.0129634514451027,  0.0078305266797543 ]
  - [   0.0447495244443417,  0.0129462862387300,  0.0078252851963043 ]
  - [   0.0445934906601906,  0.0129368575289845,  0.0078749917447567 ]
  - [   0.0452079884707928,  0.0132285086438060,  0.0117186568677425 ]
  - [   0.0446546152234077,  0.0130330128595233,  0.0078538134694099 ]
  - [   0.0446973480284214,  0.0128342844545841,  0.0078371614217758 ]
  - [   0.0447040833532810,  0.0130589213222265,  0.0077749714255333 ]
- atom:    9
  displacement:
    [  -0.0100000000000000,  0.0000000000000000,  0.0000000000000000 ]
  forces:
  - [   0.0267831310629845,  0.0078594014048576,  0.0088804829865694 ]
  - [   0.0270349364727736,  0.0077535901218653,  0.0092565603554249 ]
  - [   0.0269043054431677,  0.0078446809202433,  0.0091379620134830 ]
  - [   0.0269227512180805,  0.0076962327584624,  0.0086688958108425 ]
  - [   0.0263598486781120,  0.0076492587104440,  0.0088048670440912 ]
  - [   0.0266431607306004,  0.0080832280218601,  0.0092948554083705 ]
  - [   0.0268309507519007,  0.0075759533792734,  0.0091977026313543 ]
  - [   0.0275163166224957,  0.0078645143657923,  0.0098686721175909 ]
  - [  -0.0021263211965561, -0.0032561323605478, -0.0029392354190350 ]
  - [  -0.0130081344395876, -0.0040888600051403, -0.0083661219105124 ]
  - [  -0.0133470762521029, -0.0035424246452749, -0.0083244061097503 ]
  - [  -0.0142386388033628, -0.0031222258694470, -0.0086111621931195 ]
  - [  -0.0143219903111458, -0.0041397809982300, -0.0083785783499479 ]
  - [  -0.0142978299409151, -0.0041413223370910, -0.0084198191761971 ]
  - [  -0.0143000595271587, -0.0041370978578925, -0.0084142945706844 ]
  - [  -0.0143387671560049, -0.0041565913707018, -0.0084254518151283 ]
  - [  -0.0051076496019959, -0.0014347876422107, -0.0140941562131047 ]
  - [  -0.0062020011246204, -0.0008195089176297, -0.0124227758497000 ]
  - [  -0.0052690007723868, -0.0021456577815115, -0.0133015727624297 ]
  - [  -0.0049458020366728, -0.0014418155187741, -0.0141292251646519 ]
  - [  -0.0053222617134452, -0.0015339164528996, -0.0142778344452381 ]
  - [  -0.0051395674236119, -0.0016210295725614, -0.0141830155625939 ]
  - [  -0.0052400031127036, -0.0014049801975489, -0.0142021039500833 ]
  - [  -0.0052432399243116, -0.0015434329397976, -0.0143838245421648 ]
  - [  -0.0372130200266838, -0.0107347629964352, -0.0114082749933004 ]
  - [  -0.0383688285946846, -0.0085461754351854, -0.0123204812407494 ]
  - [  -0.0363114774227142, -0.0125126168131828, -0.0118826776742935 ]
  - [  -0.0343427695333958, -0.0098286829888821, -0.0107854232192039 ]
  - [  -0.0340495556592941, -0.0098613649606705, -0.0111889094114304 ]
  - [  -0.0340203940868378, -0.0098452065140009, -0.0111661218106747 ]
  - [  -0.0340329520404339, -0.0098572168499231, -0.0111651401966810 ]
  - [  -0.0340522564947605, -0.0098547730594873, -0.0111736729741096 ]
  - [  -0.0177808329463005, -0.0051270183175802,  0.0171943977475166 ]
  - [  -0.0190164484083652, -0.0066057173535228,  0.0152307469397783 ]
  - [  -0.0208806842565536, -0.0040893517434597,  0.0141080338507891 ]