phonopy:
  version: "2.37.1"
  frequency_unit_conversion_factor: 15.633302
  symmetry_tolerance: 1.00000e-05

space_group:
  type: "Pmmn"
  number: 59
  Hall_symbol: "P 2 2ab -1ab"

primitive_matrix:
- [  1.000000000000000, -0.000000000000000,  0.000000000000000 ]
- [  0.000000000000000,  0.000000000000000, -1.000000000000000 ]
- [  0.000000000000000,  1.000000000000000,  0.000000000000000 ]

supercell_matrix:
- [   4,   0,   0 ]
- [   0,   3,   0 ]
- [   0,   0,   2 ]

primitive_cell:
  lattice:
  - [     3.283691314782469,     0.000000000000000,     0.000000000000000 ] # a
  - [    -0.000000216676692,     0.000000546059186,     5.450124387255479 ] # b
  - [     0.000000086376909,    -4.996879402422121,     0.000000000000000 ] # c
  points:
  - symbol: Li # 1
    coordinates: [  0.000000002774658,  0.000000000421572,  0.985498390006612 ]
    mass: 6.940000
  - symbol: Li # 2
    coordinates: [  0.500000000192784,  0.500000001947813,  0.181168273376926 ]
    mass: 6.940000
  - symbol: Sn # 3
    coordinates: [  0.499999993777210,  0.000000005846232,  0.485745061912601 ]
    mass: 118.710000
  - symbol: Sn # 4
    coordinates: [  0.000000003225215,  0.499999991784803,  0.680921607883088 ]
    mass: 118.710000
  reciprocal_lattice: # without 2pi
  - [     0.304535324467990,     0.000000005264250,     0.000000012107192 ] # a*
  - [     0.000000000000000,    -0.000000000000000,     0.183482050857113 ] # b*
  - [     0.000000000000000,    -0.200124901856802,     0.000000020050926 ] # c*

unit_cell:
  lattice:
  - [     3.283691314782469,     0.000000000000000,     0.000000000000000 ] # a
  - [    -0.000000086376909,     4.996879402422121,     0.000000000000000 ] # b
  - [    -0.000000216676692,     0.000000546059186,     5.450124387255479 ] # c
  points:
  - symbol: Li # 1
    coordinates: [  0.000000002774658,  0.014501609993388,  0.000000000421572 ]
    mass: 6.940000
    reduced_to: 1
  - symbol: Li # 2
    coordinates: [  0.500000000192784,  0.818831726623075,  0.500000001947813 ]
    mass: 6.940000
    reduced_to: 2
  - symbol: Sn # 3
    coordinates: [  0.499999993777210,  0.514254938087399,  0.000000005846232 ]
    mass: 118.710000
    reduced_to: 3
  - symbol: Sn # 4
    coordinates: [  0.000000003225215,  0.319078392116912,  0.499999991784803 ]
    mass: 118.710000
    reduced_to: 4

supercell:
  lattice:
  - [    13.134765259129876,     0.000000000000000,     0.000000000000000 ] # a
  - [    -0.000000259130727,    14.990638207266365,     0.000000000000000 ] # b
  - [    -0.000000433353383,     0.000001092118372,    10.900248774510958 ] # c
  points:
  - symbol: Li # 1
    coordinates: [  0.000000000693665,  0.004833869997796,  0.000000000210786 ]
    mass: 6.940000
    reduced_to: 1
  - symbol: Li # 2
    coordinates: [  0.250000000693665,  0.004833869997796,  0.000000000210786 ]
    mass: 6.940000
    reduced_to: 1
  - symbol: Li # 3
    coordinates: [  0.500000000693664,  0.004833869997796,  0.000000000210786 ]
    mass: 6.940000
    reduced_to: 1
  - symbol: Li # 4
    coordinates: [  0.750000000693664,  0.004833869997796,  0.000000000210786 ]
    mass: 6.940000
    reduced_to: 1
  - symbol: Li # 5
    coordinates: [  0.000000000693665,  0.338167203331129,  0.000000000210786 ]
    mass: 6.940000
    reduced_to: 1
  - symbol: Li # 6
    coordinates: [  0.250000000693665,  0.338167203331129,  0.000000000210786 ]
    mass: 6.940000
    reduced_to: 1
  - symbol: Li # 7
    coordinates: [  0.500000000693664,  0.338167203331129,  0.000000000210786 ]
    mass: 6.940000
    reduced_to: 1
  - symbol: Li # 8
    coordinates: [  0.750000000693664,  0.338167203331129,  0.000000000210786 ]
    mass: 6.940000
    reduced_to: 1
  - symbol: Li # 9
    coordinates: [  0.000000000693665,  0.671500536664463,  0.000000000210786 ]
    mass: 6.940000
    reduced_to: 1
  - symbol: Li # 10
    coordinates: [  0.250000000693665,  0.671500536664463,  0.000000000210786 ]
    mass: 6.940000
    reduced_to: 1
  - symbol: Li # 11
    coordinates: [  0.500000000693664,  0.671500536664463,  0.000000000210786 ]
    mass: 6.940000
    reduced_to: 1
  - symbol: Li # 12
    coordinates: [  0.750000000693664,  0.671500536664463,  0.000000000210786 ]
    mass: 6.940000
    reduced_to: 1
  - symbol: Li # 13
    coordinates: [  0.000000000693665,  0.004833869997796,  0.500000000210786 ]
    mass: 6.940000
    reduced_to: 1
  - symbol: Li # 14
    coordinates: [  0.250000000693665,  0.004833869997796,  0.500000000210786 ]
    mass: 6.940000
    reduced_to: 1
  - symbol: Li # 15
    coordinates: [  0.500000000693664,  0.004833869997796,  0.500000000210786 ]
    mass: 6.940000
    reduced_to: 1
  - symbol: Li # 16
    coordinates: [  0.750000000693664,  0.004833869997796,  0.500000000210786 ]
    mass: 6.940000
    reduced_to: 1
  - symbol: Li # 17
    coordinates: [  0.000000000693665,  0.338167203331129,  0.500000000210786 ]
    mass: 6.940000
    reduced_to: 1
  - symbol: Li # 18
    coordinates: [  0.250000000693665,  0.338167203331129,  0.500000000210786 ]
    mass: 6.940000
    reduced_to: 1
  - symbol: Li # 19
    coordinates: [  0.500000000693664,  0.338167203331129,  0.500000000210786 ]
    mass: 6.940000
    reduced_to: 1
  - symbol: Li # 20
    coordinates: [  0.750000000693664,  0.338167203331129,  0.500000000210786 ]
    mass: 6.940000
    reduced_to: 1
  - symbol: Li # 21
    coordinates: [  0.000000000693665,  0.671500536664463,  0.500000000210786 ]
    mass: 6.940000
    reduced_to: 1
  - symbol: Li # 22
    coordinates: [  0.250000000693665,  0.671500536664463,  0.500000000210786 ]
    mass: 6.940000
    reduced_to: 1
  - symbol: Li # 23
    coordinates: [  0.500000000693664,  0.671500536664463,  0.500000000210786 ]
    mass: 6.940000
    reduced_to: 1
  - symbol: Li # 24
    coordinates: [  0.750000000693664,  0.671500536664463,  0.500000000210786 ]
    mass: 6.940000
    reduced_to: 1
  - symbol: Li # 25
    coordinates: [  0.125000000048196,  0.272943908874358,  0.250000000973906 ]
    mass: 6.940000
    reduced_to: 25
  - symbol: Li # 26
    coordinates: [  0.375000000048196,  0.272943908874358,  0.250000000973906 ]
    mass: 6.940000
    reduced_to: 25
  - symbol: Li # 27
    coordinates: [  0.625000000048196,  0.272943908874358,  0.250000000973906 ]
    mass: 6.940000
    reduced_to: 25
  - symbol: Li # 28
    coordinates: [  0.875000000048196,  0.272943908874358,  0.250000000973906 ]
    mass: 6.940000
    reduced_to: 25
  - symbol: Li # 29
    coordinates: [  0.125000000048196,  0.606277242207691,  0.250000000973906 ]
    mass: 6.940000
    reduced_to: 25
  - symbol: Li # 30
    coordinates: [  0.375000000048196,  0.606277242207691,  0.250000000973906 ]
    mass: 6.940000
    reduced_to: 25
  - symbol: Li # 31
    coordinates: [  0.625000000048196,  0.606277242207691,  0.250000000973906 ]
    mass: 6.940000
    reduced_to: 25
  - symbol: Li # 32
    coordinates: [  0.875000000048196,  0.606277242207691,  0.250000000973906 ]
    mass: 6.940000
    reduced_to: 25
  - symbol: Li # 33
    coordinates: [  0.125000000048196,  0.939610575541025,  0.250000000973906 ]
    mass: 6.940000
    reduced_to: 25
  - symbol: Li # 34
    coordinates: [  0.375000000048196,  0.939610575541025,  0.250000000973906 ]
    mass: 6.940000
    reduced_to: 25
  - symbol: Li # 35
    coordinates: [  0.625000000048196,  0.939610575541025,  0.250000000973906 ]
    mass: 6.940000
    reduced_to: 25
  - symbol: Li # 36
    coordinates: [  0.875000000048196,  0.939610575541025,  0.250000000973906 ]
    mass: 6.940000
    reduced_to: 25
  - symbol: Li # 37
    coordinates: [  0.125000000048196,  0.272943908874358,  0.750000000973906 ]
    mass: 6.940000
    reduced_to: 25
  - symbol: Li # 38
    coordinates: [  0.375000000048196,  0.272943908874358,  0.750000000973906 ]
    mass: 6.940000
    reduced_to: 25
  - symbol: Li # 39
    coordinates: [  0.625000000048196,  0.272943908874358,  0.750000000973906 ]
    mass: 6.940000
    reduced_to: 25
  - symbol: Li # 40
    coordinates: [  0.875000000048196,  0.272943908874358,  0.750000000973906 ]
    mass: 6.940000
    reduced_to: 25
  - symbol: Li # 41
    coordinates: [  0.125000000048196,  0.606277242207691,  0.750000000973906 ]
    mass: 6.940000
    reduced_to: 25
  - symbol: Li # 42
    coordinates: [  0.375000000048196,  0.606277242207691,  0.750000000973906 ]
    mass: 6.940000
    reduced_to: 25
  - symbol: Li # 43
    coordinates: [  0.625000000048196,  0.606277242207691,  0.750000000973906 ]
    mass: 6.940000
    reduced_to: 25
  - symbol: Li # 44
    coordinates: [  0.875000000048196,  0.606277242207691,  0.750000000973906 ]
    mass: 6.940000
    reduced_to: 25
  - symbol: Li # 45
    coordinates: [  0.125000000048196,  0.939610575541025,  0.750000000973906 ]
    mass: 6.940000
    reduced_to: 25
  - symbol: Li # 46
    coordinates: [  0.375000000048196,  0.939610575541025,  0.750000000973906 ]
    mass: 6.940000
    reduced_to: 25
  - symbol: Li # 47
    coordinates: [  0.625000000048196,  0.939610575541025,  0.750000000973906 ]
    mass: 6.940000
    reduced_to: 25
  - symbol: Li # 48
    coordinates: [  0.875000000048196,  0.939610575541025,  0.750000000973906 ]
    mass: 6.940000
    reduced_to: 25
  - symbol: Sn # 49
    coordinates: [  0.124999998444303,  0.171418312695800,  0.000000002923116 ]
    mass: 118.710000
    reduced_to: 49
  - symbol: Sn # 50
    coordinates: [  0.374999998444303,  0.171418312695800,  0.000000002923116 ]
    mass: 118.710000
    reduced_to: 49
  - symbol: Sn # 51
    coordinates: [  0.624999998444303,  0.171418312695800,  0.000000002923116 ]
    mass: 118.710000
    reduced_to: 49
  - symbol: Sn # 52
    coordinates: [  0.874999998444303,  0.171418312695800,  0.000000002923116 ]
    mass: 118.710000
    reduced_to: 49
  - symbol: Sn # 53
    coordinates: [  0.124999998444303,  0.504751646029133,  0.000000002923116 ]
    mass: 118.710000
    reduced_to: 49
  - symbol: Sn # 54
    coordinates: [  0.374999998444303,  0.504751646029133,  0.000000002923116 ]
    mass: 118.710000
    reduced_to: 49
  - symbol: Sn # 55
    coordinates: [  0.624999998444303,  0.504751646029133,  0.000000002923116 ]
    mass: 118.710000
    reduced_to: 49
  - symbol: Sn # 56
    coordinates: [  0.874999998444303,  0.504751646029133,  0.000000002923116 ]
    mass: 118.710000
    reduced_to: 49
  - symbol: Sn # 57
    coordinates: [  0.124999998444303,  0.838084979362466,  0.000000002923116 ]
    mass: 118.710000
    reduced_to: 49
  - symbol: Sn # 58
    coordinates: [  0.374999998444303,  0.838084979362466,  0.000000002923116 ]
    mass: 118.710000
    reduced_to: 49
  - symbol: Sn # 59
    coordinates: [  0.624999998444303,  0.838084979362466,  0.000000002923116 ]
    mass: 118.710000
    reduced_to: 49
  - symbol: Sn # 60
    coordinates: [  0.874999998444303,  0.838084979362466,  0.000000002923116 ]
    mass: 118.710000
    reduced_to: 49
  - symbol: Sn # 61
    coordinates: [  0.124999998444303,  0.171418312695800,  0.500000002923116 ]
    mass: 118.710000
    reduced_to: 49
  - symbol: Sn # 62
    coordinates: [  0.374999998444303,  0.171418312695800,  0.500000002923116 ]
    mass: 118.710000
    reduced_to: 49
  - symbol: Sn # 63
    coordinates: [  0.624999998444303,  0.171418312695800,  0.500000002923116 ]
    mass: 118.710000
    reduced_to: 49
  - symbol: Sn # 64
    coordinates: [  0.874999998444303,  0.171418312695800,  0.500000002923116 ]
    mass: 118.710000
    reduced_to: 49
  - symbol: Sn # 65
    coordinates: [  0.124999998444303,  0.504751646029133,  0.500000002923116 ]
    mass: 118.710000
    reduced_to: 49
  - symbol: Sn # 66
    coordinates: [  0.374999998444303,  0.504751646029133,  0.500000002923116 ]
    mass: 118.710000
    reduced_to: 49
  - symbol: Sn # 67
    coordinates: [  0.624999998444303,  0.504751646029133,  0.500000002923116 ]
    mass: 118.710000
    reduced_to: 49
  - symbol: Sn # 68
    coordinates: [  0.874999998444303,  0.504751646029133,  0.500000002923116 ]
    mass: 118.710000
    reduced_to: 49
  - symbol: Sn # 69
    coordinates: [  0.124999998444303,  0.838084979362466,  0.500000002923116 ]
    mass: 118.710000
    reduced_to: 49
  - symbol: Sn # 70
    coordinates: [  0.374999998444303,  0.838084979362466,  0.500000002923116 ]
    mass: 118.710000
    reduced_to: 49
  - symbol: Sn # 71
    coordinates: [  0.624999998444303,  0.838084979362466,  0.500000002923116 ]
    mass: 118.710000
    reduced_to: 49
  - symbol: Sn # 72
    coordinates: [  0.874999998444303,  0.838084979362466,  0.500000002923116 ]
    mass: 118.710000
    reduced_to: 49
  - symbol: Sn # 73
    coordinates: [  0.000000000806304,  0.106359464038971,  0.249999995892402 ]
    mass: 118.710000
    reduced_to: 73
  - symbol: Sn # 74
    coordinates: [  0.250000000806304,  0.106359464038971,  0.249999995892402 ]
    mass: 118.710000
    reduced_to: 73
  - symbol: Sn # 75
    coordinates: [  0.500000000806304,  0.106359464038971,  0.249999995892402 ]
    mass: 118.710000
    reduced_to: 73
  - symbol: Sn # 76
    coordinates: [  0.750000000806304,  0.106359464038971,  0.249999995892402 ]
    mass: 118.710000
    reduced_to: 73
  - symbol: Sn # 77
    coordinates: [  0.000000000806304,  0.439692797372304,  0.249999995892402 ]
    mass: 118.710000
    reduced_to: 73
  - symbol: Sn # 78
    coordinates: [  0.250000000806304,  0.439692797372304,  0.249999995892402 ]
    mass: 118.710000
    reduced_to: 73
  - symbol: Sn # 79
    coordinates: [  0.500000000806304,  0.439692797372304,  0.249999995892402 ]
    mass: 118.710000
    reduced_to: 73
  - symbol: Sn # 80
    coordinates: [  0.750000000806304,  0.439692797372304,  0.249999995892402 ]
    mass: 118.710000
    reduced_to: 73
  - symbol: Sn # 81
    coordinates: [  0.000000000806304,  0.773026130705637,  0.249999995892402 ]
    mass: 118.710000
    reduced_to: 73
  - symbol: Sn # 82
    coordinates: [  0.250000000806304,  0.773026130705637,  0.249999995892402 ]
    mass: 118.710000
    reduced_to: 73
  - symbol: Sn # 83
    coordinates: [  0.500000000806304,  0.773026130705637,  0.249999995892402 ]
    mass: 118.710000
    reduced_to: 73
  - symbol: Sn # 84
    coordinates: [  0.750000000806304,  0.773026130705637,  0.249999995892402 ]
    mass: 118.710000
    reduced_to: 73
  - symbol: Sn # 85
    coordinates: [  0.000000000806304,  0.106359464038971,  0.749999995892402 ]
    mass: 118.710000
    reduced_to: 73
  - symbol: Sn # 86
    coordinates: [  0.250000000806304,  0.106359464038971,  0.749999995892402 ]
    mass: 118.710000
    reduced_to: 73
  - symbol: Sn # 87
    coordinates: [  0.500000000806304,  0.106359464038971,  0.749999995892402 ]
    mass: 118.710000
    reduced_to: 73
  - symbol: Sn # 88
    coordinates: [  0.750000000806304,  0.106359464038971,  0.749999995892402 ]
    mass: 118.710000
    reduced_to: 73
  - symbol: Sn # 89
    coordinates: [  0.000000000806304,  0.439692797372304,  0.749999995892402 ]
    mass: 118.710000
    reduced_to: 73
  - symbol: Sn # 90
    coordinates: [  0.250000000806304,  0.439692797372304,  0.749999995892402 ]
    mass: 118.710000
    reduced_to: 73
  - symbol: Sn # 91
    coordinates: [  0.500000000806304,  0.439692797372304,  0.749999995892402 ]
    mass: 118.710000
    reduced_to: 73
  - symbol: Sn # 92
    coordinates: [  0.750000000806304,  0.439692797372304,  0.749999995892402 ]
    mass: 118.710000
    reduced_to: 73
  - symbol: Sn # 93
    coordinates: [  0.000000000806304,  0.773026130705637,  0.749999995892402 ]
    mass: 118.710000
    reduced_to: 73
  - symbol: Sn # 94
    coordinates: [  0.250000000806304,  0.773026130705637,  0.749999995892402 ]
    mass: 118.710000
    reduced_to: 73
  - symbol: Sn # 95
    coordinates: [  0.500000000806304,  0.773026130705637,  0.749999995892402 ]
    mass: 118.710000
    reduced_to: 73
  - symbol: Sn # 96
    coordinates: [  0.750000000806304,  0.773026130705637,  0.749999995892402 ]
    mass: 118.710000
    reduced_to: 73

displacements:
- atom:    1
  displacement:
    [   0.0057819398526998,  0.0065988982400690,  0.0047983031956074 ]
  forces:
  - [  -0.0086068622767925, -0.0121838506311178, -0.0066079474054277 ]
  - [   0.0011701027397066,  0.0088194832205772,  0.0000845362519613 ]
  - [  -0.0002697939053178,  0.0091237043961883, -0.0000284996986011 ]
  - [   0.0016341763548553,  0.0084030330181122,  0.0000870415096870 ]
  - [   0.0002167238853872,  0.0089861638844013, -0.0000707875224180 ]
  - [  -0.0004855368752033,  0.0084752468392253,  0.0000000619329512 ]
  - [  -0.0000129824038595,  0.0092374365776777, -0.0000004291605364 ]
  - [   0.0001778182340786,  0.0090565588325262, -0.0000000123463906 ]
  - [   0.0002177087590098,  0.0090095456689596, -0.0000694137634127 ]
  - [   0.0001774346455932,  0.0090568698942661,  0.0000001993030310 ]
  - [  -0.0000155700836331,  0.0092402752488852,  0.0000001648447494 ]
  - [  -0.0004897679900751,  0.0084733236581087,  0.0000000468035068 ]
  - [  -0.0000221002337639,  0.0089403465390205,  0.0006809743936174 ]
  - [   0.0000239825167228,  0.0091972798109055,  0.0000032412954170 ]
  - [   0.0000144387031469,  0.0091993790119886,  0.0000258320415014 ]
  - [  -0.0000755574728828,  0.0092844683676958,  0.0000031744966691 ]
  - [   0.0000228234566748,  0.0092700086534023,  0.0000387652544305 ]
  - [   0.0000099267344922,  0.0092580039054155,  0.0000087553635240 ]
  - [  -0.0000108196400106,  0.0091999787837267, -0.0000000808504410 ]
  - [  -0.0000226006086450,  0.0092572923749685,  0.0000087580156105 ]
  - [   0.0000228439457715,  0.0092688705772161,  0.0000385886232834 ]
  - [  -0.0000069949310273,  0.0092415157705545,  0.0000084817875177 ]
  - [  -0.0000085004139692,  0.0092004379257560, -0.0000000330910552 ]
  - [  -0.0000056929420680,  0.0092694032937288,  0.0000085627834778 ]
  - [  -0.0000235582228925, -0.0095658116042614, -0.0002002960536629 ]
  - [  -0.0000433977693319, -0.0092933317646384, -0.0000255516206380 ]
  - [   0.0000206518452615, -0.0092517258599401, -0.0000046925852075 ]
  - [   0.0001054984459188, -0.0095652882009745, -0.0000419546267949 ]
  - [   0.0000180318020284, -0.0092165600508451,  0.0000282436376438 ]
  - [  -0.0000184960663319, -0.0092070465907454,  0.0000012310047168 ]
  - [   0.0000219135545194, -0.0091822817921638,  0.0000146859092638 ]
  - [  -0.0000283224508166, -0.0092292446643114, -0.0000097777228802 ]
  - [   0.0004346315690782, -0.0091757941991091,  0.0004492469015531 ]
  - [   0.0000166879035532, -0.0091573195531964,  0.0000179348571692 ]
  - [   0.0000157898757607, -0.0091469436883926,  0.0000073040719144 ]
  - [   0.0000670520530548, -0.0089190686121583, -0.0003503858461045 ]
  - [   0.0001051193539752, -0.0092622945085168,  0.0003800363047048 ]
  - [  -0.0000262600369751, -0.0092706624418497,  0.0000257553474512 ]
  - [   0.0000017287675291, -0.0092303594574332,  0.0000046920613386 ]
  - [  -0.0000223851784540, -0.0092587247490883,  0.0002201124443673 ]
  - [  -0.0000132591458168, -0.0092295780777931, -0.0000277486396953 ]
  - [  -0.0000073388218880, -0.0092182848602533, -0.0000007679482223 ]
  - [   0.0000135074369609, -0.0091920662671328, -0.0000143932993524 ]
  - [   0.0000027189962566, -0.0092429304495454,  0.0000098595046438 ]
  - [  -0.0002238391025458, -0.0085852406919003,  0.0004647760652006 ]
  - [   0.0000048317015171, -0.0091673005372286, -0.0000062519247876 ]
  - [   0.0000258104410022, -0.0091578010469675,  0.0000037518911995 ]
  - [   0.0007186280563474, -0.0083394292742014,  0.0012439643032849 ]
  - [   0.0041239196434617, -0.0018535479903221, -0.0001803615450626 ]
  - [  -0.0001621199771762, -0.0100058391690254,  0.0000077688946476 ]
  - [   0.0000817459076643, -0.0099883601069450,  0.0000075139105320 ]
  - [  -0.0012897809501737, -0.0070964619517326, -0.0001709880307317 ]
  - [  -0.0000493833795190, -0.0098514482378960, -0.0000029207008083 ]
  - [   0.0000323448330164, -0.0098654404282570, -0.0000025593190003 ]
  - [  -0.0000024032779038, -0.0098977237939835, -0.0000030286610126 ]
  - [   0.0000172824384208, -0.0099091008305550, -0.0000040177255869 ]
  - [  -0.0016589837614447, -0.0068053752183914,  0.0002009123563766 ]
  - [   0.0000709739979357, -0.0100019201636314,  0.0000191500876099 ]
  - [  -0.0000929429661483, -0.0100572705268860,  0.0000181705690920 ]
  - [   0.0040554194711149, -0.0019592940807343,  0.0002049077302217 ]
  - [   0.0000996384769678, -0.0099421963095665,  0.0000600718194619 ]
  - [   0.0000481866300106, -0.0099120736122131,  0.0000038680154830 ]
  - [  -0.0000095400027931, -0.0099342167377472,  0.0000017064157873 ]
  - [  -0.0002721978817135, -0.0098964124917984,  0.0000602984800935 ]
  - [  -0.0000006491318345, -0.0099423900246620,  0.0000036528217606 ]
  - [  -0.0000043679028749, -0.0099331736564636,  0.0000034097465687 ]
  - [   0.0000024980399758, -0.0099361836910248,  0.0000027946662158 ]
  - [   0.0000016156700440, -0.0099520534276962,  0.0000032586976886 ]
  - [  -0.0000072063194239, -0.0099604949355125, -0.0001180628314614 ]
  - [  -0.0000373956281692, -0.0099263042211533, -0.0000084249768406 ]
  - [   0.0000640884973109, -0.0099694505333900, -0.0000087863299996 ]
  - [   0.0000073839910328, -0.0100992694497108, -0.0001153387129307 ]
  - [  -0.0001482486841269,  0.0127589330077171,  0.0034478481393307 ]
  - [   0.0001299646683037,  0.0099180191755295,  0.0001828782260418 ]
  - [   0.0000157718313858,  0.0099450275301933,  0.0000441909069195 ]
  - [   0.0001632701605558,  0.0099656209349632,  0.0000165671808645 ]
  - [   0.0000082461165221,  0.0099385306239128, -0.0000191137660295 ]
  - [   0.0000219270586967,  0.0099492073059082,  0.0000622700899839 ]
  - [  -0.0000198166817427,  0.0099100768566132, -0.0000304672867060 ]
  - [  -0.0000052703544497,  0.0099036097526550,  0.0000451524974778 ]
  - [   0.0000169370323420,  0.0098468512296677,  0.0002231713151559 ]
  - [   0.0000939145684242,  0.0098731070756912,  0.0000687920255587 ]
  - [   0.0000035194680095,  0.0099527612328529, -0.0000260882079601 ]
  - [  -0.0002016872167587,  0.0097841471433640,  0.0001593524357304 ]
  - [  -0.0001408003590768,  0.0097689703106880, -0.0001242316793650 ]
  - [   0.0000907578505576,  0.0098732784390450, -0.0001217607641593 ]
  - [   0.0000143153592944,  0.0099342390894890, -0.0000455513363704 ]
  - [   0.0002053277567029,  0.0099211260676384,  0.0000483521725982 ]
  - [   0.0000093048438430,  0.0099351853132248,  0.0000191841972992 ]
  - [   0.0000163577497005,  0.0099592953920364, -0.0000626026885584 ]
  - [  -0.0000201719249162,  0.0099094063043594,  0.0000300438841805 ]
  - [  -0.0000014659017324,  0.0099128633737564, -0.0000442012678832 ]
  - [   0.0000169454142451,  0.0098895877599716, -0.0000618826597929 ]
  - [   0.0000474080443382,  0.0098765119910240, -0.0000707609578967 ]
  - [   0.0000032465904951,  0.0099615231156349,  0.0000271676108241 ]
  - [  -0.0001588156446815,  0.0097883567214012, -0.0001610389444977 ]
- atom:    1
  displacement:
    [  -0.0057819398526998, -0.0065988982400690, -0.0047983031956074 ]
  forces:
  - [   0.0086574042215943,  0.0305797792971134,  0.0064934771507978 ]
  - [  -0.0011584782041609,  0.0095996949821711, -0.0000867928683874 ]
  - [   0.0002698204480112,  0.0092984922230244,  0.0000277468934655 ]
  - [  -0.0016513901064172,  0.0100213559344411, -0.0000842608860694 ]
  - [  -0.0002167643979192,  0.0094111226499081,  0.0000696629649610 ]
  - [   0.0004855410661548,  0.0099461488425732, -0.0000010265375749 ]
  - [   0.0000189533457160,  0.0091882590204477, -0.0000006439126423 ]
  - [  -0.0001769314403646,  0.0093661919236183, -0.0000009603077160 ]
  - [  -0.0002155292313546,  0.0094344876706600,  0.0000709527303115 ]
  - [  -0.0001768874935806,  0.0093661630526185, -0.0000007286125765 ]
  - [   0.0000164920929819,  0.0091911368072033, -0.0000000992183402 ]
  - [   0.0004810087848455,  0.0099442740902305, -0.0000010937346815 ]
  - [   0.0000204674943234,  0.0094805536791682, -0.0006755299400538 ]
  - [  -0.0000249359018198,  0.0092255119234324, -0.0000028077247407 ]
  - [  -0.0000144308996823,  0.0092233549803495, -0.0000262501325778 ]
  - [   0.0000775030639488,  0.0091356560587883, -0.0000027252062864 ]
  - [  -0.0000236353371292,  0.0091524915769696, -0.0000391784560634 ]
  - [  -0.0000094885472208,  0.0091645382344723, -0.0000081258604041 ]
  - [   0.0000099309254438,  0.0092219775542617,  0.0000001863263606 ]
  - [   0.0000223290408030,  0.0091659054160118, -0.0000082358346845 ]
  - [  -0.0000235596671700,  0.0091514717787504, -0.0000393047012039 ]
  - [   0.0000068687368184,  0.0091772377490997, -0.0000085534047685 ]
  - [   0.0000123176723719,  0.0092224990949035,  0.0000002904089342 ]
  - [   0.0000059983867686,  0.0091488100588322, -0.0000085249994299 ]
  - [   0.0000261524692178, -0.0088539551943541,  0.0001994669437408 ]
  - [   0.0000444520264864, -0.0091289589181542,  0.0000263549154624 ]
  - [  -0.0000220546498895, -0.0091709736734629,  0.0000051168026403 ]
  - [  -0.0001101149246097, -0.0088572362437844,  0.0000430447980762 ]
  - [  -0.0000184345990419, -0.0092058349400759, -0.0000275854836218 ]
  - [   0.0000136662274599, -0.0092183509841561, -0.0000006193295121 ]
  - [  -0.0000262095127255, -0.0092440135776997, -0.0000144273508340 ]
  - [   0.0000241817906499, -0.0091958912089467,  0.0000106432125904 ]
  - [  -0.0004381578473840, -0.0092524029314518, -0.0004517536144704 ]
  - [  -0.0000165421515703, -0.0092719467356801, -0.0000172092695720 ]
  - [  -0.0000194751191884, -0.0092788022011518, -0.0000065219937824 ]
  - [  -0.0000676912241033, -0.0095076709985733,  0.0003422627924010 ]
  - [  -0.0001063188537955, -0.0091616716235876, -0.0003753640921786 ]
  - [   0.0000266628339887, -0.0091508887708187, -0.0000261285458691 ]
  - [  -0.0000060107558966, -0.0091945063322783, -0.0000051851966418 ]
  - [   0.0000230777986872, -0.0091615971177816, -0.0002204809570685 ]
  - [   0.0000133765861392, -0.0091931046918035,  0.0000280530657619 ]
  - [   0.0000020507723093, -0.0092071108520031,  0.0000010575749911 ]
  - [  -0.0000118671450764, -0.0092313718050718,  0.0000147129176185 ]
  - [  -0.0000080112367868, -0.0091837402433157, -0.0000105376238935 ]
  - [   0.0002256255538668, -0.0098384972661734, -0.0004612670745701 ]
  - [  -0.0000107702799141, -0.0092625347897410,  0.0000063547195168 ]
  - [  -0.0000270230229944, -0.0092701306566596, -0.0000047572539188 ]
  - [  -0.0007384745404124, -0.0101046031340957, -0.0012758373050019 ]
  - [  -0.0039635645225644, -0.0177428945899010,  0.0001523230166640 ]
  - [   0.0001566978171468, -0.0098480731248856, -0.0000068002482294 ]
  - [  -0.0000819149427116, -0.0098727717995644, -0.0000068715307862 ]
  - [   0.0012827767059207, -0.0127841830253601,  0.0001611777261132 ]
  - [   0.0000494038686156, -0.0100048482418060,  0.0000039649207793 ]
  - [  -0.0000337231904268, -0.0099949687719345,  0.0000036457554415 ]
  - [  -0.0000008943025023, -0.0099608451128006,  0.0000028058420867 ]
  - [  -0.0000168392434716, -0.0099474787712097,  0.0000024658065740 ]
  - [   0.0016680657863617, -0.0130256190896034, -0.0001878029142972 ]
  - [  -0.0000719465315342, -0.0098602622747421, -0.0000201612911042 ]
  - [   0.0000930670648813, -0.0098033621907234, -0.0000211431179196 ]
  - [  -0.0042242133058608, -0.0181447081267834, -0.0001828437671065 ]
  - [  -0.0001049842685461, -0.0099179297685623, -0.0000651431037113 ]
  - [  -0.0000488320365548, -0.0099451020359993, -0.0000012518721633 ]
  - [   0.0000107206869870, -0.0099256038665771, -0.0000025692861527 ]
  - [   0.0002760346978903, -0.0099626332521439, -0.0000651596928947 ]
  - [  -0.0000009555369616, -0.0099152997136116, -0.0000032825046219 ]
  - [   0.0000029457733035, -0.0099237114191055, -0.0000027031055652 ]
  - [  -0.0000016663689166, -0.0099220871925354, -0.0000033236574382 ]
  - [  -0.0000005997717381, -0.0099048241972923, -0.0000036716228351 ]
  - [   0.0000071516260505, -0.0098949223756790,  0.0001156223006546 ]
  - [   0.0000341366976500, -0.0099319666624069,  0.0000090199755505 ]
  - [  -0.0000614910386503, -0.0098853036761284,  0.0000084589701146 ]
  - [  -0.0000088638626039, -0.0097552016377449,  0.0001179892569780 ]
  - [   0.0001323196338490,  0.0071584954857826, -0.0033257391769439 ]
  - [  -0.0001240966375917,  0.0099407359957695, -0.0001828107051551 ]
  - [  -0.0000135011505336,  0.0099221691489220, -0.0000448031350970 ]
  - [  -0.0001638848334551,  0.0098955184221268, -0.0000167741673067 ]
  - [  -0.0000074820600275,  0.0099199786782265,  0.0000196477631107 ]
  - [  -0.0000222472008318,  0.0099082365632057, -0.0000636171316728 ]
  - [   0.0000224152463488,  0.0099501907825470,  0.0000294351484627 ]
  - [   0.0000122841447592,  0.0099575445055962, -0.0000435522524640 ]
  - [  -0.0000187492751138,  0.0100117400288582, -0.0002260807668790 ]
  - [  -0.0000915781129152,  0.0099888741970062, -0.0000700259115547 ]
  - [  -0.0000025589251891,  0.0099057927727699,  0.0000260934466496 ]
  - [   0.0002128817141056,  0.0100748836994171, -0.0001605593133718 ]
  - [   0.0001395751314703,  0.0100719630718231,  0.0001565618440509 ]
  - [  -0.0000858309213072,  0.0099861919879913,  0.0001192070776597 ]
  - [  -0.0000144607656694,  0.0099279955029488,  0.0000438109273091 ]
  - [  -0.0001999184023589,  0.0099413543939590, -0.0000436188420281 ]
  - [  -0.0000070767714533,  0.0099233537912369, -0.0000195654574782 ]
  - [  -0.0000151905696839,  0.0098955631256104,  0.0000627613626420 ]
  - [   0.0000224455998250,  0.0099491998553276, -0.0000298127997667 ]
  - [   0.0000035492703319,  0.0099440291523933,  0.0000450718216598 ]
  - [  -0.0000184960663319,  0.0099788606166840,  0.0000666063278913 ]
  - [  -0.0000434366520494,  0.0099816545844078,  0.0000702067045495 ]
  - [  -0.0000036724086385,  0.0099008455872536, -0.0000251412857324 ]
  - [   0.0001614680513740,  0.0100680291652679,  0.0001610714243725 ]
- atom:   49
  displacement:
    [   0.0057819398526998,  0.0065988982400690,  0.0047983031956074 ]
  forces:
  - [   0.0042079035192728,  0.0168051477521658, -0.0001504688116256 ]