# Thermal properties / unit cell (natom)

unit:
  temperature:   K
  free_energy:   kJ/mol
  entropy:       J/K/mol
  heat_capacity: J/K/mol

natom: 4    
cutoff_frequency: 0.00000
num_modes: 129600
num_integrated_modes: 129598

zero_point_energy:      12.3883065

thermal_properties:
- temperature:         0.0000000
  free_energy:        12.3883065
  entropy:             0.0000000
  heat_capacity:       0.0000000
  energy:             12.3883065

- temperature:        10.0000000
  free_energy:        12.3871735
  entropy:             0.4708271
  heat_capacity:       1.6396853
  energy:             12.3918818

- temperature:        20.0000000
  free_energy:        12.3668328
  entropy:             4.3199826
  heat_capacity:      11.7259889
  energy:             12.4532325

- temperature:        30.0000000
  free_energy:        12.2901651
  entropy:            11.3203520
  heat_capacity:      23.1925985
  energy:             12.6297756

- temperature:        40.0000000
  free_energy:        12.1375230
  entropy:            19.2442777
  heat_capacity:      31.8685975
  energy:             12.9072942

- temperature:        50.0000000
  free_energy:        11.9055901
  entropy:            27.0981030
  heat_capacity:      38.5394268
  energy:             13.2604952

- temperature:        60.0000000
  free_energy:        11.5966335
  entropy:            34.6364048
  heat_capacity:      44.2102922
  energy:             13.6748178

- temperature:        70.0000000
  free_energy:        11.2139743
  entropy:            41.8420431
  heat_capacity:      49.3359955
  energy:             14.1429173

- temperature:        80.0000000
  free_energy:        10.7608101
  entropy:            48.7422828
  heat_capacity:      54.0548396
  energy:             14.6601928

- temperature:        90.0000000
  free_energy:        10.2400591
  entropy:            55.3630974
  heat_capacity:      58.3902149
  energy:             15.2227379

- temperature:       100.0000000
  free_energy:         9.6544175
  entropy:            61.7229528
  heat_capacity:      62.3405544
  energy:             15.8267127

- temperature:       110.0000000
  free_energy:         9.0064258
  entropy:            67.8350048
  heat_capacity:      65.9094947
  energy:             16.4682763

- temperature:       120.0000000
  free_energy:         8.2985083
  entropy:            73.7097603
  heat_capacity:      69.1117980
  energy:             17.1436795

- temperature:       130.0000000
  free_energy:         7.5329897
  entropy:            79.3567623
  heat_capacity:      71.9712469
  energy:             17.8493688

- temperature:       140.0000000
  free_energy:         6.7121009
  entropy:            84.7854094
  heat_capacity:      74.5168858
  energy:             18.5820582

- temperature:       150.0000000
  free_energy:         5.8379776
  entropy:            90.0052427
  heat_capacity:      76.7797526
  energy:             19.3387640

- temperature:       160.0000000
  free_energy:         4.9126597
  entropy:            95.0259599
  heat_capacity:      78.7905895
  energy:             20.1168133

- temperature:       170.0000000
  free_energy:         3.9380896
  entropy:            99.8573130
  heat_capacity:      80.5784475
  energy:             20.9138328

- temperature:       180.0000000
  free_energy:         2.9161124
  entropy:           104.5089759
  heat_capacity:      82.1699556
  energy:             21.7277281

- temperature:       190.0000000
  free_energy:         1.8484775
  entropy:           108.9904211
  heat_capacity:      83.5890342
  energy:             22.5566575

- temperature:       200.0000000
  free_energy:         0.7368408
  entropy:           113.3108209
  heat_capacity:      84.8568813
  energy:             23.3990050

- temperature:       210.0000000
  free_energy:        -0.4172315
  entropy:           117.4789754
  heat_capacity:      85.9921140
  energy:             24.2533533

- temperature:       220.0000000
  free_energy:        -1.6122592
  entropy:           121.5032675
  heat_capacity:      87.0109881
  energy:             25.1184596

- temperature:       230.0000000
  free_energy:        -2.8468438
  entropy:           125.3916366
  heat_capacity:      87.9276469
  energy:             25.9932326

- temperature:       240.0000000
  free_energy:        -4.1196639
  entropy:           129.1515702
  heat_capacity:      88.7543715
  energy:             26.8767129

- temperature:       250.0000000
  free_energy:        -5.4294706
  entropy:           132.7901061
  heat_capacity:      89.5018186
  energy:             27.7680559

- temperature:       260.0000000
  free_energy:        -6.7750834
  entropy:           136.3138439
  heat_capacity:      90.1792359
  energy:             28.6665160

- temperature:       270.0000000
  free_energy:        -8.1553855
  entropy:           139.7289613
  heat_capacity:      90.7946551
  energy:             29.5714341

- temperature:       280.0000000
  free_energy:        -9.5693199
  entropy:           143.0412346
  heat_capacity:      91.3550598
  energy:             30.4822258

- temperature:       290.0000000
  free_energy:       -11.0158854
  entropy:           146.2560608
  heat_capacity:      91.8665323
  energy:             31.3983723

- temperature:       300.0000000
  free_energy:       -12.4941331
  entropy:           149.3784808
  heat_capacity:      92.3343794
  energy:             32.3194111

- temperature:       310.0000000
  free_energy:       -14.0031627
  entropy:           152.4132021
  heat_capacity:      92.7632406
  energy:             33.2449300

- temperature:       320.0000000
  free_energy:       -15.5421195
  entropy:           155.3646222
  heat_capacity:      93.1571806
  energy:             34.1745596

- temperature:       330.0000000
  free_energy:       -17.1101912
  entropy:           158.2368494
  heat_capacity:      93.5197684
  energy:             35.1079691

- temperature:       340.0000000
  free_energy:       -18.7066053
  entropy:           161.0337244
  heat_capacity:      93.8541445
  energy:             36.0448610

- temperature:       350.0000000
  free_energy:       -20.3306265
  entropy:           163.7588393
  heat_capacity:      94.1630790
  energy:             36.9849672

- temperature:       360.0000000
  free_energy:       -21.9815542
  entropy:           166.4155558
  heat_capacity:      94.4490206
  energy:             37.9280459

- temperature:       370.0000000
  free_energy:       -23.6587202
  entropy:           169.0070227
  heat_capacity:      94.7141388
  energy:             38.8738783

- temperature:       380.0000000
  free_energy:       -25.3614870
  entropy:           171.5361914
  heat_capacity:      94.9603599
  energy:             39.8222658

- temperature:       390.0000000
  free_energy:       -27.0892456
  entropy:           174.0058302
  heat_capacity:      95.1893982
  energy:             40.7730282

- temperature:       400.0000000
  free_energy:       -28.8414138
  entropy:           176.4185384
  heat_capacity:      95.4027824
  energy:             41.7260016

- temperature:       410.0000000
  free_energy:       -30.6174347
  entropy:           178.7767585
  heat_capacity:      95.6018788
  energy:             42.6810362

- temperature:       420.0000000
  free_energy:       -32.4167750
  entropy:           181.0827872
  heat_capacity:      95.7879109
  energy:             43.6379956

- temperature:       430.0000000
  free_energy:       -34.2389237
  entropy:           183.3387867
  heat_capacity:      95.9619767
  energy:             44.5967546

- temperature:       440.0000000
  free_energy:       -36.0833908
  entropy:           185.5467940
  heat_capacity:      96.1250632
  energy:             45.5571985

- temperature:       450.0000000
  free_energy:       -37.9497060
  entropy:           187.7087295
  heat_capacity:      96.2780597
  energy:             46.5192222

- temperature:       460.0000000
  free_energy:       -39.8374179
  entropy:           189.8264058
  heat_capacity:      96.4217686
  energy:             47.4827288

- temperature:       470.0000000
  free_energy:       -41.7460923
  entropy:           191.9015349
  heat_capacity:      96.5569157
  energy:             48.4476291

- temperature:       480.0000000
  free_energy:       -43.6753122
  entropy:           193.9357352
  heat_capacity:      96.6841580
  energy:             49.4138408

- temperature:       490.0000000
  free_energy:       -45.6246757
  entropy:           195.9305379
  heat_capacity:      96.8040917
  energy:             50.3812879

- temperature:       500.0000000
  free_energy:       -47.5937964
  entropy:           197.8873929
  heat_capacity:      96.9172588
  energy:             51.3499000

- temperature:       510.0000000
  free_energy:       -49.5823017
  entropy:           199.8076742
  heat_capacity:      97.0241525
  energy:             52.3196121

- temperature:       520.0000000
  free_energy:       -51.5898323
  entropy:           201.6926847
  heat_capacity:      97.1252223
  energy:             53.2903637

- temperature:       530.0000000
  free_energy:       -53.6160419
  entropy:           203.5436613
  heat_capacity:      97.2208790
  energy:             54.2620985

- temperature:       540.0000000
  free_energy:       -55.6605960
  entropy:           205.3617787
  heat_capacity:      97.3114980
  energy:             55.2347645

- temperature:       550.0000000
  free_energy:       -57.7231717
  entropy:           207.1481538
  heat_capacity:      97.3974231
  energy:             56.2083129

- temperature:       560.0000000
  free_energy:       -59.8034569
  entropy:           208.9038486
  heat_capacity:      97.4789696
  energy:             57.1826983

- temperature:       570.0000000
  free_energy:       -61.9011498
  entropy:           210.6298744
  heat_capacity:      97.5564271
  energy:             58.1578786

- temperature:       580.0000000
  free_energy:       -64.0159587
  entropy:           212.3271945
  heat_capacity:      97.6300619
  energy:             59.1338141

- temperature:       590.0000000
  free_energy:       -66.1476011
  entropy:           213.9967271
  heat_capacity:      97.7001190
  energy:             60.1104679

- temperature:       600.0000000
  free_energy:       -68.2958035
  entropy:           215.6393481
  heat_capacity:      97.7668244
  energy:             61.0878054

- temperature:       610.0000000
  free_energy:       -70.4603011
  entropy:           217.2558935
  heat_capacity:      97.8303868
  energy:             62.0657939

- temperature:       620.0000000
  free_energy:       -72.6408371
  entropy:           218.8471619
  heat_capacity:      97.8909989
  energy:             63.0444033

- temperature:       630.0000000
  free_energy:       -74.8371626
  entropy:           220.4139164
  heat_capacity:      97.9488390
  energy:             64.0236047

- temperature:       640.0000000
  free_energy:       -77.0490362
  entropy:           221.9568868
  heat_capacity:      98.0040723
  energy:             65.0033714

- temperature:       650.0000000
  free_energy:       -79.2762234
  entropy:           223.4767714
  heat_capacity:      98.0568519
  energy:             65.9836780

- temperature:       660.0000000
  free_energy:       -81.5184969
  entropy:           224.9742387
  heat_capacity:      98.1073199
  energy:             66.9645007

- temperature:       670.0000000
  free_energy:       -83.7756356
  entropy:           226.4499294
  heat_capacity:      98.1556084
  energy:             67.9458171

- temperature:       680.0000000
  free_energy:       -86.0474249
  entropy:           227.9044573
  heat_capacity:      98.2018403
  energy:             68.9276060

- temperature:       690.0000000
  free_energy:       -88.3336562
  entropy:           229.3384110
  heat_capacity:      98.2461299
  energy:             69.9098474

- temperature:       700.0000000
  free_energy:       -90.6341265
  entropy:           230.7523556
  heat_capacity:      98.2885839
  energy:             70.8925225

- temperature:       710.0000000
  free_energy:       -92.9486384
  entropy:           232.1468334
  heat_capacity:      98.3293015
  energy:             71.8756133

- temperature:       720.0000000
  free_energy:       -95.2770000
  entropy:           233.5223653
  heat_capacity:      98.3683757
  energy:             72.8591030

- temperature:       730.0000000
  free_energy:       -97.6190242
  entropy:           234.8794519
  heat_capacity:      98.4058932
  energy:             73.8429756

- temperature:       740.0000000
  free_energy:       -99.9745291
  entropy:           236.2185745
  heat_capacity:      98.4419351
  energy:             74.8272160

- temperature:       750.0000000
  free_energy:      -102.3433374
  entropy:           237.5401961
  heat_capacity:      98.4765773
  energy:             75.8118097

- temperature:       760.0000000
  free_energy:      -104.7252762
  entropy:           238.8447622
  heat_capacity:      98.5098910
  energy:             76.7967431

- temperature:       770.0000000
  free_energy:      -107.1201772
  entropy:           240.1327020
  heat_capacity:      98.5419429
  energy:             77.7820033

- temperature:       780.0000000
  free_energy:      -109.5278762
  entropy:           241.4044284
  heat_capacity:      98.5727956
  energy:             78.7675780

- temperature:       790.0000000
  free_energy:      -111.9482131
  entropy:           242.6603398
  heat_capacity:      98.6025078
  energy:             79.7534554

- temperature:       800.0000000
  free_energy:      -114.3810316
  entropy:           243.9008201
  heat_capacity:      98.6311349
  energy:             80.7396245

- temperature:       810.0000000
  free_energy:      -116.8261793
  entropy:           245.1262394
  heat_capacity:      98.6587287
  energy:             81.7260747

- temperature:       820.0000000
  free_energy:      -119.2835073
  entropy:           246.3369550
  heat_capacity:      98.6853382
  energy:             82.7127958

- temperature:       830.0000000
  free_energy:      -121.7528705
  entropy:           247.5333118
  heat_capacity:      98.7110093
  energy:             83.6997783

- temperature:       840.0000000
  free_energy:      -124.2341268
  entropy:           248.7156426
  heat_capacity:      98.7357856
  energy:             84.6870130

- temperature:       850.0000000
  free_energy:      -126.7271377
  entropy:           249.8842692
  heat_capacity:      98.7597080
  energy:             85.6744912

- temperature:       860.0000000
  free_energy:      -129.2317676
  entropy:           251.0395023
  heat_capacity:      98.7828150
  energy:             86.6622044

- temperature:       870.0000000
  free_energy:      -131.7478841
  entropy:           252.1816425
  heat_capacity:      98.8051431
  energy:             87.6501449

- temperature:       880.0000000
  free_energy:      -134.2753577
  entropy:           253.3109802
  heat_capacity:      98.8267269
  energy:             88.6383048

- temperature:       890.0000000
  free_energy:      -136.8140619
  entropy:           254.4277966
  heat_capacity:      98.8475988
  energy:             89.6266770

- temperature:       900.0000000
  free_energy:      -139.3638728
  entropy:           255.5323637
  heat_capacity:      98.8677898
  energy:             90.6152545

- temperature:       910.0000000
  free_energy:      -141.9246693
  entropy:           256.6249450
  heat_capacity:      98.8873291
  energy:             91.6040306

- temperature:       920.0000000
  free_energy:      -144.4963326
  entropy:           257.7057953
  heat_capacity:      98.9062442
  energy:             92.5929990

- temperature:       930.0000000
  free_energy:      -147.0787469
  entropy:           258.7751618
  heat_capacity:      98.9245614
  energy:             93.5821535

- temperature:       940.0000000
  free_energy:      -149.6717984
  entropy:           259.8332838
  heat_capacity:      98.9423055
  energy:             94.5714883

- temperature:       950.0000000
  free_energy:      -152.2753759
  entropy:           260.8803934
  heat_capacity:      98.9595002
  energy:             95.5609978

- temperature:       960.0000000
  free_energy:      -154.8893703
  entropy:           261.9167155
  heat_capacity:      98.9761677
  energy:             96.5506766

- temperature:       970.0000000
  free_energy:      -157.5136749
  entropy:           262.9424685
  heat_capacity:      98.9923293
  energy:             97.5405195

- temperature:       980.0000000
  free_energy:      -160.1481852
  entropy:           263.9578640
  heat_capacity:      99.0080053
  energy:             98.5305216

- temperature:       990.0000000
  free_energy:      -162.7927984
  entropy:           264.9631075
  heat_capacity:      99.0232148
  energy:             99.5206780

- temperature:      1000.0000000
  free_energy:      -165.4474141
  entropy:           265.9583985
  heat_capacity:      99.0379762
  energy:            100.5109844
