phonopy:
  version: "2.37.1"
  frequency_unit_conversion_factor: 15.633302
  symmetry_tolerance: 1.00000e-05

space_group:
  type: "P1"
  number: 1
  Hall_symbol: "P 1"

primitive_matrix:
- [  0.000000000000000, -1.000000000000000,  0.000000000000000 ]
- [ -1.000000000000000,  0.000000000000000,  0.000000000000000 ]
- [  0.000000000000000,  0.000000000000000, -1.000000000000000 ]

supercell_matrix:
- [   2,   0,   0 ]
- [   0,   2,   0 ]
- [   0,   0,   2 ]

primitive_cell:
  lattice:
  - [    -2.936035548197367,    -5.089605003724459,     0.000000000000000 ] # a
  - [    -5.877311766473904,     0.000000000000000,     0.000000000000000 ] # b
  - [    -2.937924206530910,    -1.696798510946126,    -5.549009566907870 ] # c
  points:
  - symbol: Sn # 1
    coordinates: [  0.804671668421269,  0.814594720716964,  0.251633972916510 ]
    mass: 118.710000
  - symbol: Sn # 2
    coordinates: [  0.138304824449952,  0.147909372442634,  0.252931295247060 ]
    mass: 118.710000
  - symbol: Sn # 3
    coordinates: [  0.638957385235777,  0.314494459876855,  0.752146922492178 ]
    mass: 118.710000
  - symbol: Sn # 4
    coordinates: [  0.971790804514401,  0.647220460065417,  0.751922486013229 ]
    mass: 118.710000
  - symbol: Sn # 5
    coordinates: [  0.305866677450413,  0.980943993087804,  0.752931462079619 ]
    mass: 118.710000
  - symbol: Sn # 6
    coordinates: [  0.471867517691755,  0.480719216840762,  0.252420851138676 ]
    mass: 118.710000
  reciprocal_lattice: # without 2pi
  - [    -0.000000000000000,    -0.196478901460570,     0.060080110407234 ] # a*
  - [    -0.170145814912240,     0.098151852765349,     0.060070466023272 ] # b*
  - [    -0.000000000000000,    -0.000000000000000,    -0.180212340227995 ] # c*

unit_cell:
  lattice:
  - [     5.877311766473904,     0.000000000000000,     0.000000000000000 ] # a
  - [     2.936035548197367,     5.089605003724459,     0.000000000000000 ] # b
  - [     2.937924206530911,     1.696798510946126,     5.549009566907870 ] # c
  points:
  - symbol: Sn # 1
    coordinates: [  0.185405279283036,  0.195328331578731,  0.748366027083490 ]
    mass: 118.710000
    reduced_to: 1
  - symbol: Sn # 2
    coordinates: [  0.852090627557366,  0.861695175550048,  0.747068704752940 ]
    mass: 118.710000
    reduced_to: 2
  - symbol: Sn # 3
    coordinates: [  0.685505540123145,  0.361042614764223,  0.247853077507822 ]
    mass: 118.710000
    reduced_to: 3
  - symbol: Sn # 4
    coordinates: [  0.352779539934583,  0.028209195485599,  0.248077513986771 ]
    mass: 118.710000
    reduced_to: 4
  - symbol: Sn # 5
    coordinates: [  0.019056006912196,  0.694133322549587,  0.247068537920381 ]
    mass: 118.710000
    reduced_to: 5
  - symbol: Sn # 6
    coordinates: [  0.519280783159238,  0.528132482308245,  0.747579148861324 ]
    mass: 118.710000
    reduced_to: 6

supercell:
  lattice:
  - [    11.754623532947807,     0.000000000000000,     0.000000000000000 ] # a
  - [     5.872071096394735,    10.179210007448917,     0.000000000000000 ] # b
  - [     5.875848413061822,     3.393597021892252,    11.098019133815740 ] # c
  points:
  - symbol: Sn # 1
    coordinates: [  0.092702639641518,  0.097664165789366,  0.374183013541745 ]
    mass: 118.710000
    reduced_to: 1
  - symbol: Sn # 2
    coordinates: [  0.592702639641518,  0.097664165789366,  0.374183013541745 ]
    mass: 118.710000
    reduced_to: 1
  - symbol: Sn # 3
    coordinates: [  0.092702639641518,  0.597664165789366,  0.374183013541745 ]
    mass: 118.710000
    reduced_to: 1
  - symbol: Sn # 4
    coordinates: [  0.592702639641518,  0.597664165789366,  0.374183013541745 ]
    mass: 118.710000
    reduced_to: 1
  - symbol: Sn # 5
    coordinates: [  0.092702639641518,  0.097664165789366,  0.874183013541745 ]
    mass: 118.710000
    reduced_to: 1
  - symbol: Sn # 6
    coordinates: [  0.592702639641518,  0.097664165789366,  0.874183013541745 ]
    mass: 118.710000
    reduced_to: 1
  - symbol: Sn # 7
    coordinates: [  0.092702639641518,  0.597664165789366,  0.874183013541745 ]
    mass: 118.710000
    reduced_to: 1
  - symbol: Sn # 8
    coordinates: [  0.592702639641518,  0.597664165789366,  0.874183013541745 ]
    mass: 118.710000
    reduced_to: 1
  - symbol: Sn # 9
    coordinates: [  0.426045313778683,  0.430847587775024,  0.373534352376470 ]
    mass: 118.710000
    reduced_to: 9
  - symbol: Sn # 10
    coordinates: [  0.926045313778683,  0.430847587775024,  0.373534352376470 ]
    mass: 118.710000
    reduced_to: 9
  - symbol: Sn # 11
    coordinates: [  0.426045313778683,  0.930847587775024,  0.373534352376470 ]
    mass: 118.710000
    reduced_to: 9
  - symbol: Sn # 12
    coordinates: [  0.926045313778683,  0.930847587775024,  0.373534352376470 ]
    mass: 118.710000
    reduced_to: 9
  - symbol: Sn # 13
    coordinates: [  0.426045313778683,  0.430847587775024,  0.873534352376470 ]
    mass: 118.710000
    reduced_to: 9
  - symbol: Sn # 14
    coordinates: [  0.926045313778683,  0.430847587775024,  0.873534352376470 ]
    mass: 118.710000
    reduced_to: 9
  - symbol: Sn # 15
    coordinates: [  0.426045313778683,  0.930847587775024,  0.873534352376470 ]
    mass: 118.710000
    reduced_to: 9
  - symbol: Sn # 16
    coordinates: [  0.926045313778683,  0.930847587775024,  0.873534352376470 ]
    mass: 118.710000
    reduced_to: 9
  - symbol: Sn # 17
    coordinates: [  0.342752770061573,  0.180521307382111,  0.123926538753911 ]
    mass: 118.710000
    reduced_to: 17
  - symbol: Sn # 18
    coordinates: [  0.842752770061573,  0.180521307382111,  0.123926538753911 ]
    mass: 118.710000
    reduced_to: 17
  - symbol: Sn # 19
    coordinates: [  0.342752770061573,  0.680521307382111,  0.123926538753911 ]
    mass: 118.710000
    reduced_to: 17
  - symbol: Sn # 20
    coordinates: [  0.842752770061573,  0.680521307382111,  0.123926538753911 ]
    mass: 118.710000
    reduced_to: 17
  - symbol: Sn # 21
    coordinates: [  0.342752770061573,  0.180521307382111,  0.623926538753911 ]
    mass: 118.710000
    reduced_to: 17
  - symbol: Sn # 22
    coordinates: [  0.842752770061573,  0.180521307382111,  0.623926538753911 ]
    mass: 118.710000
    reduced_to: 17
  - symbol: Sn # 23
    coordinates: [  0.342752770061573,  0.680521307382111,  0.623926538753911 ]
    mass: 118.710000
    reduced_to: 17
  - symbol: Sn # 24
    coordinates: [  0.842752770061573,  0.680521307382111,  0.623926538753911 ]
    mass: 118.710000
    reduced_to: 17
  - symbol: Sn # 25
    coordinates: [  0.176389769967292,  0.014104597742799,  0.124038756993386 ]
    mass: 118.710000
    reduced_to: 25
  - symbol: Sn # 26
    coordinates: [  0.676389769967291,  0.014104597742799,  0.124038756993386 ]
    mass: 118.710000
    reduced_to: 25
  - symbol: Sn # 27
    coordinates: [  0.176389769967292,  0.514104597742799,  0.124038756993386 ]
    mass: 118.710000
    reduced_to: 25
  - symbol: Sn # 28
    coordinates: [  0.676389769967291,  0.514104597742799,  0.124038756993386 ]
    mass: 118.710000
    reduced_to: 25
  - symbol: Sn # 29
    coordinates: [  0.176389769967292,  0.014104597742799,  0.624038756993386 ]
    mass: 118.710000
    reduced_to: 25
  - symbol: Sn # 30
    coordinates: [  0.676389769967291,  0.014104597742799,  0.624038756993386 ]
    mass: 118.710000
    reduced_to: 25
  - symbol: Sn # 31
    coordinates: [  0.176389769967292,  0.514104597742799,  0.624038756993386 ]
    mass: 118.710000
    reduced_to: 25
  - symbol: Sn # 32
    coordinates: [  0.676389769967291,  0.514104597742799,  0.624038756993386 ]
    mass: 118.710000
    reduced_to: 25
  - symbol: Sn # 33
    coordinates: [  0.009528003456098,  0.347066661274794,  0.123534268960191 ]
    mass: 118.710000
    reduced_to: 33
  - symbol: Sn # 34
    coordinates: [  0.509528003456098,  0.347066661274794,  0.123534268960191 ]
    mass: 118.710000
    reduced_to: 33
  - symbol: Sn # 35
    coordinates: [  0.009528003456098,  0.847066661274794,  0.123534268960191 ]
    mass: 118.710000
    reduced_to: 33
  - symbol: Sn # 36
    coordinates: [  0.509528003456098,  0.847066661274794,  0.123534268960191 ]
    mass: 118.710000
    reduced_to: 33
  - symbol: Sn # 37
    coordinates: [  0.009528003456098,  0.347066661274794,  0.623534268960191 ]
    mass: 118.710000
    reduced_to: 33
  - symbol: Sn # 38
    coordinates: [  0.509528003456098,  0.347066661274794,  0.623534268960191 ]
    mass: 118.710000
    reduced_to: 33
  - symbol: Sn # 39
    coordinates: [  0.009528003456098,  0.847066661274794,  0.623534268960191 ]
    mass: 118.710000
    reduced_to: 33
  - symbol: Sn # 40
    coordinates: [  0.509528003456098,  0.847066661274794,  0.623534268960191 ]
    mass: 118.710000
    reduced_to: 33
  - symbol: Sn # 41
    coordinates: [  0.259640391579619,  0.264066241154122,  0.373789574430662 ]
    mass: 118.710000
    reduced_to: 41
  - symbol: Sn # 42
    coordinates: [  0.759640391579619,  0.264066241154122,  0.373789574430662 ]
    mass: 118.710000
    reduced_to: 41
  - symbol: Sn # 43
    coordinates: [  0.259640391579619,  0.764066241154122,  0.373789574430662 ]
    mass: 118.710000
    reduced_to: 41
  - symbol: Sn # 44
    coordinates: [  0.759640391579619,  0.764066241154122,  0.373789574430662 ]
    mass: 118.710000
    reduced_to: 41
  - symbol: Sn # 45
    coordinates: [  0.259640391579619,  0.264066241154122,  0.873789574430662 ]
    mass: 118.710000
    reduced_to: 41
  - symbol: Sn # 46
    coordinates: [  0.759640391579619,  0.264066241154122,  0.873789574430662 ]
    mass: 118.710000
    reduced_to: 41
  - symbol: Sn # 47
    coordinates: [  0.259640391579619,  0.764066241154122,  0.873789574430662 ]
    mass: 118.710000
    reduced_to: 41
  - symbol: Sn # 48
    coordinates: [  0.759640391579619,  0.764066241154122,  0.873789574430662 ]
    mass: 118.710000
    reduced_to: 41

displacements:
- atom:    1
  displacement:
    [   0.0100000000000000,  0.0000000000000000,  0.0000000000000000 ]
  forces:
  - [  -0.0136327482759953, -0.0034379474818707, -0.0020566435996443 ]
  - [  -0.0010413015261292, -0.0033198865130544, -0.0020867569837719 ]
  - [  -0.0021862308494747, -0.0026623471640050, -0.0020844605751336 ]
  - [  -0.0021786447614431, -0.0039814370684326, -0.0020875523332506 ]
  - [  -0.0020753010176122, -0.0032398402690887, -0.0019423929043114 ]
  - [  -0.0020744141656905, -0.0033953171223402, -0.0022329427301884 ]
  - [  -0.0022059634793550, -0.0033179144375026, -0.0020858556963503 ]
  - [  -0.0022444627247751, -0.0033176466822624, -0.0020858505740762 ]
  - [   0.0032011009752750,  0.0004075439646840,  0.0020761522464454 ]
  - [   0.0022914605215192,  0.0002767913974822,  0.0020748637616634 ]
  - [   0.0050201197154820, -0.0012999513419345,  0.0020688553340733 ]
  - [   0.0048599019646645,  0.0017596473917365,  0.0020856969058514 ]
  - [   0.0029391564894468,  0.0005592973902822,  0.0019758942071348 ]
  - [   0.0029412731528282,  0.0004328051581979,  0.0021228236146271 ]
  - [   0.0028327461332083,  0.0004955371841788,  0.0021332746837288 ]
  - [   0.0026453770697117,  0.0004814229905605,  0.0020770258270204 ]
  - [   0.0018786368891597,  0.0014653657563031, -0.0024778274819255 ]
  - [   0.0014961394481361,  0.0014682644978166, -0.0004726108163595 ]
  - [   0.0013758768327534,  0.0015444247983396, -0.0008011056925170 ]
  - [   0.0013801380991936,  0.0013911863788962, -0.0007896604947746 ]
  - [   0.0017164091113955,  0.0015849312767386, -0.0005243280320428 ]
  - [   0.0012696799822152,  0.0011066703591496, -0.0016409442760050 ]
  - [   0.0012742392718792,  0.0012482660822570, -0.0005762215587310 ]
  - [   0.0015763125848025,  0.0016604773700237, -0.0010743909515440 ]
  - [  -0.0048304526135325, -0.0026954235509038, -0.0001904307864606 ]
  - [  -0.0043780878186226, -0.0031577663030475, -0.0012727114371955 ]
  - [  -0.0048069171607494, -0.0028052784036845, -0.0012352233752608 ]
  - [  -0.0045127589255571, -0.0032404239755124, -0.0007207621820271 ]
  - [  -0.0042011262848973, -0.0030477093532681,  0.0006919982843101 ]
  - [  -0.0044682319276035, -0.0030438008252531, -0.0014130533672869 ]
  - [  -0.0047123711556196, -0.0029656598344445, -0.0010050318669528 ]
  - [  -0.0047130542807281, -0.0031250305473804, -0.0009958292357624 ]
  - [   0.0035839476622641,  0.0030821724794805,  0.0026902984827757 ]
  - [   0.0040372265502810,  0.0035364031791687,  0.0015948675572872 ]
  - [   0.0038996639195830,  0.0036157565191388,  0.0021337133366615 ]
  - [   0.0035667405463755,  0.0032506715506315,  0.0016896040178835 ]
  - [   0.0036446894519031,  0.0037348992191255,  0.0021588385570794 ]
  - [   0.0039030811749399,  0.0032307053916156,  0.0016016380395740 ]
  - [   0.0035912287421525,  0.0037831238005310,  0.0010373094119132 ]
  - [   0.0040379064157605,  0.0033075930550694,  0.0021415236406028 ]
  - [   0.0011158580891788,  0.0027932394295931, -0.0000637979246676 ]
  - [   0.0009838403202593, -0.0003311159089208, -0.0000622305087745 ]
  - [  -0.0016470048576593,  0.0011890763416886, -0.0000619986094534 ]
  - [  -0.0007470303680748,  0.0010669594630599, -0.0000636441473034 ]
  - [  -0.0012937644496560,  0.0009904114995152, -0.0000622584484518 ]
  - [  -0.0011086193844676,  0.0009729896555655, -0.0001210007467307 ]
  - [  -0.0010015782900155,  0.0009116596775129,  0.0000399244017899 ]
  - [  -0.0010026954114437,  0.0010362046305090, -0.0001067817211151 ]
- atom:    1
  displacement:
    [  -0.0100000000000000,  0.0000000000000000,  0.0000000000000000 ]
  forces:
  - [   0.0093554332852364, -0.0031903795897961, -0.0021012991201133 ]
  - [  -0.0033727993723005, -0.0033154673874378, -0.0020854452159256 ]
  - [  -0.0022258223034441, -0.0039760610088706, -0.0020881113596261 ]
  - [  -0.0022328845225275, -0.0026567294262350, -0.0020856014452875 ]
  - [  -0.0023372769355774, -0.0033933492377400, -0.0022287361789495 ]
  - [  -0.0023405328392982, -0.0032430505380034, -0.0019400897435844 ]
  - [  -0.0022065399680287, -0.0033185435459018, -0.0020862212404609 ]
  - [  -0.0021681678481400, -0.0033179074525833, -0.0020863292738795 ]
  - [   0.0025472384877503,  0.0005104839801788,  0.0020762863568962 ]
  - [   0.0034588519483805,  0.0006311587058008,  0.0020776165183634 ]
  - [   0.0008286307565868,  0.0021396898664534,  0.0020846182014793 ]
  - [   0.0007982621900737, -0.0009084921330214,  0.0020688264630735 ]
  - [   0.0028087999671698,  0.0003564311191440,  0.0021787169389427 ]
  - [   0.0028114221058786,  0.0004810784012079,  0.0020341519266367 ]
  - [   0.0029190164059401,  0.0004179461393505,  0.0020207301713526 ]
  - [   0.0031003616750240,  0.0004323450848460,  0.0020801797509193 ]
  - [   0.0009218240156770,  0.0014722431078553,  0.0008356254547834 ]
  - [   0.0011406037956476,  0.0014698083978146, -0.0012221653014421 ]
  - [   0.0014012054307386,  0.0013937185285613, -0.0007920005591586 ]
  - [   0.0013982802629471,  0.0015465823234990, -0.0008003381080925 ]
  - [   0.0010680623818189,  0.0013514999300241, -0.0010682150023058 ]
  - [   0.0015131598338485,  0.0018343594856560,  0.0000548870302737 ]
  - [   0.0015211303252727,  0.0016601770184934, -0.0009932275861502 ]
  - [   0.0012007723562419,  0.0012798458337784, -0.0005176076665521 ]
  - [  -0.0045719956979156, -0.0033984202891588, -0.0018181856721640 ]
  - [  -0.0050237020477653, -0.0029312060214579, -0.0007269969210029 ]
  - [  -0.0045816814526916, -0.0032557048834860, -0.0007874486036599 ]
  - [  -0.0048906262964010, -0.0028497015591711, -0.0012796199880540 ]
  - [  -0.0051826080307364, -0.0030424350406975, -0.0026442864909768 ]
  - [  -0.0050658695399761, -0.0030460669659078, -0.0004927041009068 ]
  - [  -0.0046916054561734, -0.0031229751184583, -0.0009944961639121 ]
  - [  -0.0046918885782361, -0.0029645175673068, -0.0010056477040052 ]
  - [   0.0038412418216467,  0.0037683164700866,  0.0010360544547439 ]
  - [   0.0033895075321198,  0.0033092428930104,  0.0021411636844277 ]
  - [   0.0035249092616141,  0.0032322122715414,  0.0016021811170503 ]
  - [   0.0038770835381001,  0.0035651857033372,  0.0020205900073051 ]
  - [   0.0037911823019385,  0.0031341805588454,  0.0015959548763931 ]
  - [   0.0035201362334192,  0.0036148808430880,  0.0021359960082918 ]
  - [   0.0038359677419066,  0.0030587357468903,  0.0027071801014245 ]
  - [   0.0033917701803148,  0.0035403007641435,  0.0015947408974171 ]
  - [  -0.0031509152613580, -0.0006910795345902, -0.0000612004660070 ]
  - [  -0.0032149059697986,  0.0024224664084613, -0.0000633210875094 ]
  - [  -0.0004878374747932,  0.0008446965366602, -0.0000640945509076 ]
  - [  -0.0013890159316361,  0.0009559500031173, -0.0000631528164377 ]
  - [  -0.0008428632281721,  0.0010373382829130, -0.0000629499554634 ]
  - [  -0.0010276837274432,  0.0010531257139519, -0.0000037719582906 ]
  - [  -0.0011328891851008,  0.0011148133780807, -0.0001620179973543 ]
  - [  -0.0011347401887178,  0.0009932587854564, -0.0000202157534659 ]
- atom:    1
  displacement:
    [   0.0049968733422073,  0.0086620584621635,  0.0000000000000000 ]
  forces:
  - [  -0.0080853430554271, -0.0134175764396787, -0.0021223789080977 ]
  - [  -0.0016269567422569, -0.0036290707066655, -0.0020850151777267 ]
  - [  -0.0016278573311865, -0.0023151880595833, -0.0020849783904850 ]
  - [  -0.0027665421366692, -0.0029688458889723, -0.0020884703844786 ]
  - [  -0.0020747177768499, -0.0032380279153585, -0.0019435854628682 ]
  - [  -0.0022067432291806, -0.0033195139840245, -0.0020861309021711 ]
  - [  -0.0022056400775909, -0.0031660981476307, -0.0022294800728559 ]
  - [  -0.0022252639755607, -0.0033504934981465, -0.0020863616373390 ]
  - [   0.0030906805768609,  0.0007085036486387,  0.0020764209330082 ]
  - [   0.0027220961637795,  0.0030557089485228,  0.0020684362389147 ]
  - [   0.0027242214418948, -0.0001289120700676,  0.0020783883519471 ]
  - [   0.0052960133180022,  0.0013521136716008,  0.0020840773358941 ]
  - [   0.0029258453287184,  0.0005030911415815,  0.0020345682278275 ]
  - [   0.0028214752674103,  0.0004385923966765,  0.0020213918760419 ]
  - [   0.0028212023898959,  0.0005628881044686,  0.0021774400956929 ]
  - [   0.0027389526367188,  0.0002729166299105,  0.0020792018622160 ]
  - [   0.0016260137781501,  0.0011782632209361, -0.0016265953890979 ]
  - [   0.0014585922472179,  0.0012577525340021, -0.0006227856501937 ]
  - [   0.0014489309396595,  0.0018020077841356, -0.0005231830291450 ]
  - [   0.0013168361037970,  0.0017286287620664, -0.0010629179887474 ]
  - [   0.0016501537756994,  0.0015382608398795, -0.0005293865688145 ]
  - [   0.0010122046805918,  0.0015411953208968,  0.0000528492964804 ]
  - [   0.0011575969401747,  0.0014489544555545, -0.0009915500413626 ]
  - [   0.0016503152437508,  0.0016860775649548, -0.0010700579732656 ]
  - [  -0.0044680880382657, -0.0026349970139563,  0.0006158966571093 ]
  - [  -0.0046443864703178, -0.0030900551937521, -0.0010039727203548 ]
  - [  -0.0045316163450480, -0.0027524358592927, -0.0014906893484294 ]
  - [  -0.0047713853418827, -0.0030166576616466, -0.0009927446953952 ]
  - [  -0.0044594532810152, -0.0033350936137140, -0.0001722280867398 ]
  - [  -0.0045678387396038, -0.0032558641396463, -0.0012199254706502 ]
  - [  -0.0046443669125438, -0.0027076294645667, -0.0012706366833299 ]
  - [  -0.0047730873338878, -0.0027867997996509, -0.0007211244665086 ]
  - [   0.0033479151315987,  0.0034743947908282,  0.0010551856830716 ]
  - [   0.0039724824018776,  0.0034887590445578,  0.0015887063927948 ]
  - [   0.0039712740108371,  0.0036415853537619,  0.0021402728743851 ]
  - [   0.0035101573448628,  0.0033541736193001,  0.0020221034064889 ]
  - [   0.0039592534303665,  0.0038555243518203,  0.0024706686381251 ]
  - [   0.0036413506604731,  0.0034549892880023,  0.0018722532549873 ]
  - [   0.0039601349271834,  0.0038505238480866,  0.0002273903228343 ]
  - [   0.0037744478322566,  0.0033750648144633,  0.0018613077700138 ]
  - [   0.0012552454136312,  0.0021857572719455, -0.0000626314431429 ]
  - [  -0.0014975508674979,  0.0005914596840739, -0.0000637779012322 ]
  - [  -0.0015050761867315,  0.0035723387263715, -0.0000618407502770 ]
  - [  -0.0009572918061167,  0.0013267281465232, -0.0000632423907518 ]
  - [  -0.0011591645888984,  0.0008070165640675, -0.0000615227036178 ]
  - [  -0.0010529337450862,  0.0010813686531037, -0.0000204662646865 ]
  - [  -0.0010543800890446,  0.0009576344164088, -0.0000045280903578 ]
  - [  -0.0009477040730417,  0.0010209983447567, -0.0001643500290811 ]
- atom:    1
  displacement:
    [  -0.0049968733422073, -0.0086620584621635,  0.0000000000000000 ]
  forces:
  - [   0.0036152396351099,  0.0066883140243590, -0.0020295379217714 ]
  - [  -0.0027883513830602, -0.0030062897130847, -0.0020872494205832 ]
  - [  -0.0027857134118676, -0.0043242080137134, -0.0020878943614662 ]
  - [  -0.0016462649218738, -0.0036702710203826, -0.0020844482351094 ]
  - [  -0.0023383807856590, -0.0033954987302423, -0.0022306377068162 ]
  - [  -0.0022077988833189, -0.0033175610005856, -0.0020855427719653 ]
  - [  -0.0022060882765800, -0.0034706951119006, -0.0019411653047428 ]
  - [  -0.0021872702054679, -0.0032851868309081, -0.0020861201919615 ]
  - [   0.0026628479827195,  0.0002006590366364,  0.0020766369998455 ]
  - [   0.0030197298619896, -0.0020284545607865,  0.0020836936309934 ]
  - [   0.0030209030956030,  0.0010418992023915,  0.0020754374563694 ]
  - [   0.0003479379229248, -0.0004867985844612,  0.0020704602357000 ]
  - [   0.0028214645572007,  0.0004124687984586,  0.0021218878682703 ]
  - [   0.0029314605053514,  0.0004756357520819,  0.0021346118301153 ]
  - [   0.0029306570068002,  0.0003495290875435,  0.0019762800075114 ]
  - [   0.0030074398964643,  0.0006417902186513,  0.0020778388716280 ]
  - [   0.0011555161327124,  0.0017561374697834,  0.0000261794775724 ]
  - [   0.0012831962667406,  0.0016819853335619, -0.0009960825555027 ]
  - [   0.0013265701709315,  0.0011333958245814, -0.0010720718419179 ]
  - [   0.0014620525762439,  0.0012102234177291, -0.0005294890142977 ]
  - [   0.0011318464530632,  0.0013991128653288, -0.0010629782918841 ]
  - [   0.0017642797902226,  0.0013957013143227, -0.0016393852420151 ]
  - [   0.0016399517189711,  0.0014601899310946, -0.0005775477038696 ]
  - [   0.0011261592153460,  0.0012510004453361, -0.0005219071172178 ]
  - [  -0.0049466406926513, -0.0034734858199954, -0.0026652668602765 ]
  - [  -0.0047611165791750, -0.0029987413436174, -0.0009942292235792 ]
  - [  -0.0048070750199258, -0.0032247009221464, -0.0006025191396475 ]
  - [  -0.0046305628493428, -0.0030733654275537, -0.0010053222067654 ]
  - [  -0.0049431594088674, -0.0027585851494223, -0.0018221130594611 ]
  - [  -0.0048704138025641, -0.0028324739541858, -0.0007555466145277 ]
  - [  -0.0047614965587854, -0.0033842744305730, -0.0007267704932019 ]
  - [  -0.0046314210630953, -0.0033022330608219, -0.0012775529175997 ]
  - [   0.0040712668560445,  0.0033724387176335,  0.0026715155690908 ]
  - [   0.0034516116138548,  0.0033580232411623,  0.0021467176266015 ]
  - [   0.0034529643598944,  0.0032027666456997,  0.0015959180891514 ]
  - [   0.0039358148351312,  0.0034622717648745,  0.0016879253089428 ]
  - [   0.0035176561214030,  0.0030821652617306,  0.0013426092918962 ]
  - [   0.0037828558124602,  0.0033907634206116,  0.0018629713449627 ]
  - [   0.0034543138463050,  0.0029768710955977,  0.0035593388602138 ]
  - [   0.0036517763510346,  0.0034728473983705,  0.0018731830641627 ]
  - [  -0.0032862140797079, -0.0001054024323821, -0.0000633415766060 ]
  - [  -0.0006354562938213,  0.0014334376901388, -0.0000616488978267 ]
  - [  -0.0006186242680997, -0.0016597271896899, -0.0000644749961793 ]
  - [  -0.0011832630261779,  0.0007054004818201, -0.0000635363612673 ]
  - [  -0.0009762076660991,  0.0012213813606650, -0.0000640577636659 ]
  - [  -0.0010832455009222,  0.0009445677278563, -0.0001054850581568 ]
  - [  -0.0010807705111802,  0.0010690049966797, -0.0001179613173008 ]
  - [  -0.0011899736709893,  0.0010079728672281,  0.0000386796891689 ]
- atom:    1
  displacement:
    [   0.0045171028375134,  0.0026088533364629,  0.0085316860129845 ]
  forces:
  - [  -0.0073896385729313, -0.0064395288936794, -0.0117889465764165 ]
  - [  -0.0016819832380861, -0.0034104418009520, -0.0020337975583971 ]
  - [  -0.0020244414918125, -0.0028183497488499, -0.0020295321010053 ]
  - [  -0.0023672641254961, -0.0034148180857301, -0.0020354432053864 ]
  - [  -0.0020057114306837, -0.0031979978084564, -0.0016921482747421 ]
  - [  -0.0022925573866814, -0.0032702479511499, -0.0018176522571594 ]
  - [  -0.0022054710425436, -0.0034140362404287, -0.0018206085078418 ]
  - [  -0.0022233151830733, -0.0033278139308095, -0.0021130100358278 ]
  - [   0.0030378901865333,  0.0005171978846192,  0.0021012700162828 ]
  - [   0.0026548127643764,  0.0011605918407440,  0.0016942418878898 ]
  - [   0.0034551476128399, -0.0002385803381912,  0.0016975203761831 ]
  - [   0.0042224572971463,  0.0011322465725243,  0.0017162816366181 ]
  - [   0.0028722907882184,  0.0004227720201015,  0.0021642444189638 ]
  - [   0.0029642228037119,  0.0004492113366723,  0.0022022831253707 ]
  - [   0.0027982234023511,  0.0005704227369279,  0.0022522306535393 ]
  - [   0.0027636382728815,  0.0004057986661792,  0.0027981125749648 ]
  - [   0.0001972429454327,  0.0013829891104251, -0.0000843782909214 ]
  - [   0.0017105708830059,  0.0014051534235477, -0.0007244958542287 ]
  - [   0.0014000893570483,  0.0018630272243172, -0.0007047412800603 ]
  - [   0.0013678581453860,  0.0012593795545399, -0.0009011579677463 ]
  - [   0.0017990889027715,  0.0016554109752178, -0.0006615986349061 ]
  - [   0.0005049402825534,  0.0026463326066732,  0.0007235622033477 ]
  - [   0.0014686351642013,  0.0010814494453371, -0.0007957597263157 ]
  - [   0.0012855727691203,  0.0014581829309464, -0.0009519536979496 ]
  - [  -0.0039903395809233, -0.0016271010972559,  0.0011305790394545 ]
  - [  -0.0048195654526353, -0.0029639278072864, -0.0011095064692199 ]
  - [  -0.0048834318295121, -0.0032314183190465, -0.0011997125111520 ]
  - [  -0.0044290143996477, -0.0032280539162457, -0.0009027272462845 ]
  - [  -0.0030235012527555, -0.0031411731615663,  0.0012688306160271 ]
  - [  -0.0049631153233349, -0.0031102409120649, -0.0011957404203713 ]
  - [  -0.0046922201290727, -0.0031856577843428, -0.0011099471012130 ]
  - [  -0.0047205854207277, -0.0027189657557756, -0.0009045782499015 ]
  - [   0.0042614084668458,  0.0021528298966587,  0.0032931510359049 ]
  - [   0.0036557030398399,  0.0033360673114657,  0.0017131310887635 ]
  - [   0.0040727006271482,  0.0036839877720922,  0.0020038185175508 ]
  - [   0.0034745151642710,  0.0035852510482073,  0.0017819072818384 ]
  - [   0.0040243193507195,  0.0041005332022905,  0.0022370601072907 ]
  - [   0.0035201278515160,  0.0035107596777380,  0.0017613307572901 ]
  - [   0.0030325427651405,  0.0024255816824734,  0.0025746868923306 ]
  - [   0.0040633552707732,  0.0032327531371266,  0.0019580950029194 ]
  - [   0.0002686209045351,  0.0018894746899605, -0.0004468830302358 ]
  - [  -0.0005594287067652,  0.0004714382812381, -0.0004380876198411 ]
  - [  -0.0013755061663687,  0.0018579210154712, -0.0004319818690419 ]
  - [  -0.0009380099363625,  0.0011240900494158, -0.0000370599955204 ]
  - [  -0.0011629359796643,  0.0009448316413909,  0.0006534848362207 ]
  - [  -0.0010249586775899,  0.0010941775981337,  0.0000637225894025 ]
  - [  -0.0010044998489320,  0.0008882289985195,  0.0001179585233331 ]
  - [  -0.0010984754189849,  0.0010302687296644,  0.0000239415094256 ]
- atom:    1
  displacement:
    [  -0.0045171028375134, -0.0026088533364629, -0.0085316860129845 ]
  forces:
  - [   0.0030150788370520, -0.0001974031329155,  0.0076488554477692 ]
  - [  -0.0027328596916050, -0.0032246401533484, -0.0021398551762104 ]
  - [  -0.0023883073590696, -0.0038199587725103, -0.0021423210855573 ]
  - [  -0.0020447792485356, -0.0032240413129330, -0.0021377666853368 ]
  - [  -0.0024084709584713, -0.0034332955256104, -0.0024809064343572 ]
  - [  -0.0021229954436421, -0.0033671306446195, -0.0023528486490250 ]
  - [  -0.0022061155177653, -0.0032217358238995, -0.0023528395686299 ]
  - [  -0.0021891468204558, -0.0033079329878092, -0.0020594191737473 ]
  - [   0.0027117647696286,  0.0003955392166972,  0.0020512053743005 ]
  - [   0.0030926750041544, -0.0002431441098452,  0.0024547299835831 ]
  - [   0.0022993073798716,  0.0011432614410296,  0.0024509215727448 ]
  - [   0.0014945352450013, -0.0002372944727540,  0.0024465436581522 ]
  - [   0.0028756391257048,  0.0004922104999423,  0.0019904971122742 ]
  - [   0.0027870512567461,  0.0004641590639949,  0.0019525057869032 ]
  - [   0.0029539670795202,  0.0003410524223000,  0.0019003006163985 ]
  - [   0.0029808902181685,  0.0005071074701846,  0.0013630534522235 ]
  - [   0.0026055434718728,  0.0015564011409879, -0.0015242472290993 ]
  - [   0.0009074578993022,  0.0015336745418608, -0.0009801597334445 ]
  - [   0.0013774684630334,  0.0010725954780355, -0.0008892162004486 ]
  - [   0.0014098943211138,  0.0016798087162897, -0.0006895256228745 ]
  - [   0.0009843809530139,  0.0012832917273045, -0.0009312980109826 ]
  - [   0.0022461391054094,  0.0003308261220809, -0.0022640950046480 ]
  - [   0.0013350329827517,  0.0018124333582819, -0.0007633280474693 ]
  - [   0.0014918914530426,  0.0014798981137574, -0.0006412290968001 ]
  - [  -0.0054529113695025, -0.0045383828692138, -0.0032442817464471 ]
  - [  -0.0045844512060285, -0.0031246272847056, -0.0008887811563909 ]
  - [  -0.0045189885422587, -0.0028557609766722, -0.0008013127371669 ]
  - [  -0.0049746399745345, -0.0028618541546166, -0.0010961173102260 ]
  - [  -0.0062962579540908, -0.0029528404120356, -0.0031572766602039 ]
  - [  -0.0044459654018283, -0.0029796832241118, -0.0008010058663785 ]
  - [  -0.0047126291319728, -0.0029043289832771, -0.0008888958254829 ]
  - [  -0.0046839229762554, -0.0033697867766023, -0.0010954290628433 ]
  - [   0.0031418791040778,  0.0047385632060468,  0.0003887875936925 ]
  - [   0.0037701358087361,  0.0035094120539725,  0.0020233993418515 ]