# Thermal properties / unit cell (natom)

unit:
  temperature:   K
  free_energy:   kJ/mol
  entropy:       J/K/mol
  heat_capacity: J/K/mol

natom: 7    
cutoff_frequency: 0.00000
num_modes: 328125
num_integrated_modes: 328124

zero_point_energy:      27.8029805

thermal_properties:
- temperature:         0.0000000
  free_energy:        27.8029805
  entropy:             0.0000000
  heat_capacity:       0.0000000
  energy:             27.8029805

- temperature:        10.0000000
  free_energy:        27.8017973
  entropy:             0.4437068
  heat_capacity:       1.3729879
  energy:             27.8062343

- temperature:        20.0000000
  free_energy:        27.7846359
  entropy:             3.5816659
  heat_capacity:       9.6737071
  energy:             27.8562693

- temperature:        30.0000000
  free_energy:        27.7206352
  entropy:             9.5433027
  heat_capacity:      20.4111075
  energy:             28.0069343

- temperature:        40.0000000
  free_energy:        27.5895511
  entropy:            16.8048969
  heat_capacity:      30.4167877
  energy:             28.2617470

- temperature:        50.0000000
  free_energy:        27.3827619
  entropy:            24.6143648
  heat_capacity:      39.8848308
  energy:             28.6134801

- temperature:        60.0000000
  free_energy:        27.0963125
  entropy:            32.7139706
  heat_capacity:      49.2529936
  energy:             29.0591508

- temperature:        70.0000000
  free_energy:        26.7278243
  entropy:            41.0119112
  heat_capacity:      58.6483455
  energy:             29.5986581

- temperature:        80.0000000
  free_energy:        26.2755968
  entropy:            49.4529753
  heat_capacity:      67.9561951
  energy:             30.2318348

- temperature:        90.0000000
  free_energy:        25.7384726
  entropy:            57.9815717
  heat_capacity:      76.9745017
  energy:             30.9568140

- temperature:       100.0000000
  free_energy:        25.1158706
  entropy:            66.5386698
  heat_capacity:      85.5187591
  energy:             31.7697376

- temperature:       110.0000000
  free_energy:        24.4077953
  entropy:            75.0671834
  heat_capacity:      93.4640267
  energy:             32.6651854

- temperature:       120.0000000
  free_energy:        23.6147909
  entropy:            83.5168125
  heat_capacity:     100.7480560
  energy:             33.6368084

- temperature:       130.0000000
  free_energy:        22.7378601
  entropy:            91.8464377
  heat_capacity:     107.3583320
  energy:             34.6778970

- temperature:       140.0000000
  free_energy:        21.7783684
  entropy:           100.0244948
  heat_capacity:     113.3160316
  energy:             35.7817977

- temperature:       150.0000000
  free_energy:        20.7379523
  entropy:           108.0281746
  heat_capacity:     118.6623045
  energy:             36.9421785

- temperature:       160.0000000
  free_energy:        19.6184380
  entropy:           115.8421098
  heat_capacity:     123.4482369
  energy:             38.1531756

- temperature:       170.0000000
  free_energy:        18.4217742
  entropy:           123.4569558
  heat_capacity:     127.7281870
  energy:             39.4094567

- temperature:       180.0000000
  free_energy:        17.1499784
  entropy:           130.8680731
  heat_capacity:     131.5556961
  energy:             40.7062316

- temperature:       190.0000000
  free_energy:        15.8050957
  entropy:           138.0743966
  heat_capacity:     134.9811906
  energy:             42.0392311

- temperature:       200.0000000
  free_energy:        14.3891681
  entropy:           145.0775087
  heat_capacity:     138.0508552
  energy:             43.4046698

- temperature:       210.0000000
  free_energy:        12.9042114
  entropy:           151.8809031
  heat_capacity:     140.8062315
  energy:             44.7992011

- temperature:       220.0000000
  free_energy:        11.3521997
  entropy:           158.4894121
  heat_capacity:     143.2842441
  energy:             46.2198704

- temperature:       230.0000000
  free_energy:         9.7350538
  entropy:           164.9087681
  heat_capacity:     145.5174603
  energy:             47.6640704

- temperature:       240.0000000
  free_energy:         8.0546339
  entropy:           171.1452724
  heat_capacity:     147.5344630
  energy:             49.1294993

- temperature:       250.0000000
  free_energy:         6.3127357
  entropy:           177.2055478
  heat_capacity:     149.3602646
  energy:             50.6141227

- temperature:       260.0000000
  free_energy:         4.5110878
  entropy:           183.0963560
  heat_capacity:     151.0167193
  energy:             52.1161404

- temperature:       270.0000000
  free_energy:         2.6513509
  entropy:           188.8244649
  heat_capacity:     152.5229133
  energy:             53.6339565

- temperature:       280.0000000
  free_energy:         0.7351186
  entropy:           194.3965536
  heat_capacity:     153.8955191
  energy:             55.1661536

- temperature:       290.0000000
  free_energy:        -1.2360818
  entropy:           199.8191454
  heat_capacity:     155.1491127
  energy:             56.7114704

- temperature:       300.0000000
  free_energy:        -3.2607871
  entropy:           205.0985631
  heat_capacity:     156.2964530
  energy:             58.2687818

- temperature:       310.0000000
  free_energy:        -5.3375962
  entropy:           210.2408995
  heat_capacity:     157.3487250
  energy:             59.8370827

- temperature:       320.0000000
  free_energy:        -7.4651677
  entropy:           215.2520000
  heat_capacity:     158.3157509
  energy:             61.4154723

- temperature:       330.0000000
  free_energy:        -9.6422174
  entropy:           220.1374540
  heat_capacity:     159.2061723
  energy:             63.0031425

- temperature:       340.0000000
  free_energy:       -11.8675157
  entropy:           224.9025930
  heat_capacity:     160.0276070
  energy:             64.5993659

- temperature:       350.0000000
  free_energy:       -14.1398851
  entropy:           229.5524923
  heat_capacity:     160.7867840
  energy:             66.2034872

- temperature:       360.0000000
  free_energy:       -16.4581975
  entropy:           234.0919765
  heat_capacity:     161.4896597
  energy:             67.8149140

- temperature:       370.0000000
  free_energy:       -18.8213719
  entropy:           238.5256277
  heat_capacity:     162.1415173
  energy:             69.4331103

- temperature:       380.0000000
  free_energy:       -21.2283718
  entropy:           242.8577943
  heat_capacity:     162.7470531
  energy:             71.0575900

- temperature:       390.0000000
  free_energy:       -23.6782033
  entropy:           247.0926007
  heat_capacity:     163.3104500
  energy:             72.6879110

- temperature:       400.0000000
  free_energy:       -26.1699124
  entropy:           251.2339585
  heat_capacity:     163.8354413
  energy:             74.3236710

- temperature:       410.0000000
  free_energy:       -28.7025834
  entropy:           255.2855764
  heat_capacity:     164.3253660
  energy:             75.9645030

- temperature:       420.0000000
  free_energy:       -31.2753365
  entropy:           259.2509714
  heat_capacity:     164.7832163
  energy:             77.6100715

- temperature:       430.0000000
  free_energy:       -33.8873265
  entropy:           263.1334788
  heat_capacity:     165.2116785
  energy:             79.2600694

- temperature:       440.0000000
  free_energy:       -36.5377404
  entropy:           266.9362625
  heat_capacity:     165.6131696
  energy:             80.9142151

- temperature:       450.0000000
  free_energy:       -39.2257960
  entropy:           270.6623248
  heat_capacity:     165.9898674
  energy:             82.5722501

- temperature:       460.0000000
  free_energy:       -41.9507406
  entropy:           274.3145154
  heat_capacity:     166.3437387
  energy:             84.2339364

- temperature:       470.0000000
  free_energy:       -44.7118491
  entropy:           277.8955402
  heat_capacity:     166.6765621
  energy:             85.8990548

- temperature:       480.0000000
  free_energy:       -47.5084228
  entropy:           281.4079702
  heat_capacity:     166.9899495
  energy:             87.5674029

- temperature:       490.0000000
  free_energy:       -50.3397881
  entropy:           284.8542488
  heat_capacity:     167.2853635
  energy:             89.2387939

- temperature:       500.0000000
  free_energy:       -53.2052950
  entropy:           288.2366995
  heat_capacity:     167.5641337
  energy:             90.9130547

- temperature:       510.0000000
  free_energy:       -56.1043167
  entropy:           291.5575329
  heat_capacity:     167.8274711
  energy:             92.5900251

- temperature:       520.0000000
  free_energy:       -59.0362473
  entropy:           294.8188533
  heat_capacity:     168.0764797
  energy:             94.2695564

- temperature:       530.0000000
  free_energy:       -62.0005020
  entropy:           298.0226648
  heat_capacity:     168.3121679
  energy:             95.9515103

- temperature:       540.0000000
  free_energy:       -64.9965153
  entropy:           301.1708773
  heat_capacity:     168.5354581
  energy:             97.6357584

- temperature:       550.0000000
  free_energy:       -68.0237403
  entropy:           304.2653115
  heat_capacity:     168.7471950
  energy:             99.3221810

- temperature:       560.0000000
  free_energy:       -71.0816481
  entropy:           307.3077044
  heat_capacity:     168.9481537
  energy:            101.0106664

- temperature:       570.0000000
  free_energy:       -74.1697265
  entropy:           310.2997140
  heat_capacity:     169.1390458
  energy:            102.7011105

- temperature:       580.0000000
  free_energy:       -77.2874797
  entropy:           313.2429235
  heat_capacity:     169.3205259
  energy:            104.3934159

- temperature:       590.0000000
  free_energy:       -80.4344273
  entropy:           316.1388458
  heat_capacity:     169.4931967
  energy:            106.0874917

- temperature:       600.0000000
  free_energy:       -83.6101038
  entropy:           318.9889270
  heat_capacity:     169.6576140
  energy:            107.7832524

- temperature:       610.0000000
  free_energy:       -86.8140577
  entropy:           321.7945506
  heat_capacity:     169.8142909
  energy:            109.4806181

- temperature:       620.0000000
  free_energy:       -90.0458511
  entropy:           324.5570404
  heat_capacity:     169.9637013
  energy:            111.1795140

- temperature:       630.0000000
  free_energy:       -93.3050590
  entropy:           327.2776641
  heat_capacity:     170.1062841
  energy:            112.8798694

- temperature:       640.0000000
  free_energy:       -96.5912688
  entropy:           329.9576361
  heat_capacity:     170.2424456
  energy:            114.5816182

- temperature:       650.0000000
  free_energy:       -99.9040801
  entropy:           332.5981204
  heat_capacity:     170.3725627
  energy:            116.2846982

- temperature:       660.0000000
  free_energy:      -103.2431034
  entropy:           335.2002331
  heat_capacity:     170.4969851
  energy:            117.9890505

- temperature:       670.0000000
  free_energy:      -106.6079604
  entropy:           337.7650453
  heat_capacity:     170.6160379
  energy:            119.6946200

- temperature:       680.0000000
  free_energy:      -109.9982834
  entropy:           340.2935849
  heat_capacity:     170.7300234
  energy:            121.4013544

- temperature:       690.0000000
  free_energy:      -113.4137145
  entropy:           342.7868391
  heat_capacity:     170.8392233
  energy:            123.1092045

- temperature:       700.0000000
  free_energy:      -116.8539057
  entropy:           345.2457564
  heat_capacity:     170.9438999
  energy:            124.8181238

- temperature:       710.0000000
  free_energy:      -120.3185182
  entropy:           347.6712485
  heat_capacity:     171.0442980
  energy:            126.5280682

- temperature:       720.0000000
  free_energy:      -123.8072222
  entropy:           350.0641922
  heat_capacity:     171.1406460
  energy:            128.2389962

- temperature:       730.0000000
  free_energy:      -127.3196964
  entropy:           352.4254311
  heat_capacity:     171.2331577
  energy:            129.9508684

- temperature:       740.0000000
  free_energy:      -130.8556278
  entropy:           354.7557771
  heat_capacity:     171.3220328
  energy:            131.6636473

- temperature:       750.0000000
  free_energy:      -134.4147115
  entropy:           357.0560121
  heat_capacity:     171.4074582
  energy:            133.3772975

- temperature:       760.0000000
  free_energy:      -137.9966502
  entropy:           359.3268891
  heat_capacity:     171.4896093
  energy:            135.0917855

- temperature:       770.0000000
  free_energy:      -141.6011539
  entropy:           361.5691341
  heat_capacity:     171.5686503
  energy:            136.8070794

- temperature:       780.0000000
  free_energy:      -145.2279398
  entropy:           363.7834467
  heat_capacity:     171.6447354
  energy:            138.5231487

- temperature:       790.0000000
  free_energy:      -148.8767320
  entropy:           365.9705021
  heat_capacity:     171.7180093
  energy:            140.2399647

- temperature:       800.0000000
  free_energy:      -152.5472611
  entropy:           368.1309514
  heat_capacity:     171.7886083
  energy:            141.9575000

- temperature:       810.0000000
  free_energy:      -156.2392644
  entropy:           370.2654232
  heat_capacity:     171.8566602
  energy:            143.6757284

- temperature:       820.0000000
  free_energy:      -159.9524850
  entropy:           372.3745245
  heat_capacity:     171.9222856
  energy:            145.3946251

- temperature:       830.0000000
  free_energy:      -163.6866723
  entropy:           374.4588417
  heat_capacity:     171.9855978
  energy:            147.1141664

- temperature:       840.0000000
  free_energy:      -167.4415811
  entropy:           376.5189414
  heat_capacity:     172.0467039
  energy:            148.8343297

- temperature:       850.0000000
  free_energy:      -171.2169722
  entropy:           378.5553713
  heat_capacity:     172.1057047
  energy:            150.5550934

- temperature:       860.0000000
  free_energy:      -175.0126114
  entropy:           380.5686610
  heat_capacity:     172.1626953
  energy:            152.2764371

- temperature:       870.0000000
  free_energy:      -178.8282700
  entropy:           382.5593229
  heat_capacity:     172.2177657
  energy:            153.9983409

- temperature:       880.0000000
  free_energy:      -182.6637241
  entropy:           384.5278527
  heat_capacity:     172.2710008
  energy:            155.7207863

- temperature:       890.0000000
  free_energy:      -186.5187549
  entropy:           386.4747303
  heat_capacity:     172.3224809
  energy:            157.4437551

- temperature:       900.0000000
  free_energy:      -190.3931481
  entropy:           388.4004204
  heat_capacity:     172.3722820
  energy:            159.1672303

- temperature:       910.0000000
  free_energy:      -194.2866942
  entropy:           390.3053731
  heat_capacity:     172.4204761
  energy:            160.8911954

- temperature:       920.0000000
  free_energy:      -198.1991879
  entropy:           392.1900245
  heat_capacity:     172.4671313
  energy:            162.6156347

- temperature:       930.0000000
  free_energy:      -202.1304284
  entropy:           394.0547973
  heat_capacity:     172.5123121
  energy:            164.3405331

- temperature:       940.0000000
  free_energy:      -206.0802189
  entropy:           395.9001012
  heat_capacity:     172.5560798
  energy:            166.0658762

- temperature:       950.0000000
  free_energy:      -210.0483669
  entropy:           397.7263337
  heat_capacity:     172.5984926
  energy:            167.7916502

- temperature:       960.0000000
  free_energy:      -214.0346833
  entropy:           399.5338803
  heat_capacity:     172.6396055
  energy:            169.5178417

- temperature:       970.0000000
  free_energy:      -218.0389834
  entropy:           401.3231150
  heat_capacity:     172.6794711
  energy:            171.2444381

- temperature:       980.0000000
  free_energy:      -222.0610858
  entropy:           403.0944010
  heat_capacity:     172.7181389
  energy:            172.9714272

- temperature:       990.0000000
  free_energy:      -226.1008128
  entropy:           404.8480908
  heat_capacity:     172.7556565
  energy:            174.6987971

- temperature:      1000.0000000
  free_energy:      -230.1579901
  entropy:           406.5845267
  heat_capacity:     172.7920688
  energy:            176.4265366
