# Thermal properties / unit cell (natom)

unit:
  temperature:   K
  free_energy:   kJ/mol
  entropy:       J/K/mol
  heat_capacity: J/K/mol

natom: 6    
cutoff_frequency: 0.00000
num_modes: 743814
num_integrated_modes: 742053

zero_point_energy:      13.6858742

thermal_properties:
- temperature:         0.0000000
  free_energy:        13.6858742
  entropy:             0.0000000
  heat_capacity:       0.0000000
  energy:             13.6858742

- temperature:        10.0000000
  free_energy:        13.6795813
  entropy:             2.5254715
  heat_capacity:       8.1372199
  energy:             13.7048360

- temperature:        20.0000000
  free_energy:        13.5891802
  entropy:            17.3865238
  heat_capacity:      38.2179723
  energy:             13.9369106

- temperature:        30.0000000
  free_energy:        13.3163126
  entropy:            37.2924334
  heat_capacity:      59.6185670
  energy:             14.4350856

- temperature:        40.0000000
  free_energy:        12.8465269
  entropy:            56.3759150
  heat_capacity:      72.6837933
  energy:             15.1015635

- temperature:        50.0000000
  free_energy:        12.1951068
  entropy:            73.5963508
  heat_capacity:      81.5323298
  energy:             15.8749243

- temperature:        60.0000000
  free_energy:        11.3803494
  entropy:            89.0958634
  heat_capacity:      88.5034353
  energy:             16.7261012

- temperature:        70.0000000
  free_energy:        10.4178175
  entropy:           103.2046900
  heat_capacity:      94.5988565
  energy:             17.6421458

- temperature:        80.0000000
  free_energy:         9.3199452
  entropy:           116.2038779
  heat_capacity:     100.1397716
  energy:             18.6162554

- temperature:        90.0000000
  free_energy:         8.0967599
  entropy:           128.2950344
  heat_capacity:     105.1906002
  energy:             19.6433130

- temperature:       100.0000000
  free_energy:         6.7565995
  entropy:           139.6183839
  heat_capacity:     109.7528691
  energy:             20.7184379

- temperature:       110.0000000
  free_energy:         5.3066153
  entropy:           150.2740125
  heat_capacity:     113.8316308
  energy:             21.8367567

- temperature:       120.0000000
  free_energy:         3.7530931
  entropy:           160.3369786
  heat_capacity:     117.4488513
  energy:             22.9935305

- temperature:       130.0000000
  free_energy:         2.1016524
  entropy:           169.8666145
  heat_capacity:     120.6398649
  energy:             24.1843123

- temperature:       140.0000000
  free_energy:         0.3573743
  entropy:           178.9119519
  heat_capacity:     123.4468604
  energy:             25.4050476

- temperature:       150.0000000
  free_energy:        -1.4751125
  entropy:           187.5148538
  heat_capacity:     125.9136341
  energy:             26.6521156

- temperature:       160.0000000
  free_energy:        -3.3915702
  entropy:           195.7118570
  heat_capacity:     128.0822774
  energy:             27.9223269

- temperature:       170.0000000
  free_energy:        -5.3881048
  entropy:           203.5353026
  heat_capacity:     129.9914255
  energy:             29.2128966

- temperature:       180.0000000
  free_energy:        -7.4611277
  entropy:           211.0140748
  heat_capacity:     131.6755437
  energy:             30.5214058

- temperature:       190.0000000
  free_energy:        -9.6073242
  entropy:           218.1741193
  heat_capacity:     133.1648292
  energy:             31.8457585

- temperature:       200.0000000
  free_energy:       -11.8236259
  entropy:           225.0388321
  heat_capacity:     134.4854432
  energy:             33.1841405

- temperature:       210.0000000
  free_energy:       -14.1071871
  entropy:           231.6293697
  heat_capacity:     135.6598960
  energy:             34.5349805

- temperature:       220.0000000
  free_energy:       -16.4553635
  entropy:           237.9649061
  heat_capacity:     136.7074822
  energy:             35.8969159

- temperature:       230.0000000
  free_energy:       -18.8656934
  entropy:           244.0628522
  heat_capacity:     137.6447116
  energy:             37.2687626

- temperature:       240.0000000
  free_energy:       -21.3358815
  entropy:           249.9390460
  heat_capacity:     138.4857061
  energy:             38.6494895

- temperature:       250.0000000
  free_energy:       -23.8637834
  entropy:           255.6079193
  heat_capacity:     139.2425543
  energy:             40.0381964

- temperature:       260.0000000
  free_energy:       -26.4473928
  entropy:           261.0826450
  heat_capacity:     139.9256185
  energy:             41.4340948

- temperature:       270.0000000
  free_energy:       -29.0848294
  entropy:           266.3752669
  heat_capacity:     140.5437985
  energy:             42.8364926

- temperature:       280.0000000
  free_energy:       -31.7743280
  entropy:           271.4968151
  heat_capacity:     141.1047550
  energy:             44.2447802

- temperature:       290.0000000
  free_energy:       -34.5142293
  entropy:           276.4574084
  heat_capacity:     141.6150990
  energy:             45.6584191

- temperature:       300.0000000
  free_energy:       -37.3029708
  entropy:           281.2663446
  heat_capacity:     142.0805503
  energy:             47.0769326

- temperature:       310.0000000
  free_energy:       -40.1390793
  entropy:           285.9321818
  heat_capacity:     142.5060715
  energy:             48.4998971

- temperature:       320.0000000
  free_energy:       -43.0211638
  entropy:           290.4628099
  heat_capacity:     142.8959799
  energy:             49.9269354

- temperature:       330.0000000
  free_energy:       -45.9479091
  entropy:           294.8655143
  heat_capacity:     143.2540419
  energy:             51.3577106

- temperature:       340.0000000
  free_energy:       -48.9180702
  entropy:           299.1470331
  heat_capacity:     143.5835524
  energy:             52.7919211

- temperature:       350.0000000
  free_energy:       -51.9304667
  entropy:           303.3136081
  heat_capacity:     143.8874018
  energy:             54.2292961

- temperature:       360.0000000
  free_energy:       -54.9839785
  entropy:           307.3710295
  heat_capacity:     144.1681323
  energy:             55.6695921

- temperature:       370.0000000
  free_energy:       -58.0775414
  entropy:           311.3246774
  heat_capacity:     144.4279859
  energy:             57.1125892

- temperature:       380.0000000
  free_energy:       -61.2101429
  entropy:           315.1795572
  heat_capacity:     144.6689448
  energy:             58.5580889

- temperature:       390.0000000
  free_energy:       -64.3808189
  entropy:           318.9403331
  heat_capacity:     144.8927659
  energy:             60.0059110

- temperature:       400.0000000
  free_energy:       -67.5886504
  entropy:           322.6113567
  heat_capacity:     145.1010103
  energy:             61.4558923

- temperature:       410.0000000
  free_energy:       -70.8327604
  entropy:           326.1966937
  heat_capacity:     145.2950682
  energy:             62.9078840

- temperature:       420.0000000
  free_energy:       -74.1123114
  entropy:           329.7001473
  heat_capacity:     145.4761808
  energy:             64.3617505

- temperature:       430.0000000
  free_energy:       -77.4265023
  entropy:           333.1252802
  heat_capacity:     145.6454583
  energy:             65.8173681

- temperature:       440.0000000
  free_energy:       -80.7745671
  entropy:           336.4754332
  heat_capacity:     145.8038963
  energy:             67.2746236

- temperature:       450.0000000
  free_energy:       -84.1557715
  entropy:           339.7537433
  heat_capacity:     145.9523893
  energy:             68.7334129

- temperature:       460.0000000
  free_energy:       -87.5694123
  entropy:           342.9631591
  heat_capacity:     146.0917423
  energy:             70.1936409

- temperature:       470.0000000
  free_energy:       -91.0148144
  entropy:           346.1064555
  heat_capacity:     146.2226819
  energy:             71.6552197

- temperature:       480.0000000
  free_energy:       -94.4913297
  entropy:           349.1862467
  heat_capacity:     146.3458645
  energy:             73.1180687

- temperature:       490.0000000
  free_energy:       -97.9983358
  entropy:           352.2049979
  heat_capacity:     146.4618844
  energy:             74.5821132

- temperature:       500.0000000
  free_energy:      -101.5352340
  entropy:           355.1650366
  heat_capacity:     146.5712808
  energy:             76.0472843

- temperature:       510.0000000
  free_energy:      -105.1014482
  entropy:           358.0685618
  heat_capacity:     146.6745435
  energy:             77.5135183

- temperature:       520.0000000
  free_energy:      -108.6964238
  entropy:           360.9176539
  heat_capacity:     146.7721185
  energy:             78.9807562

- temperature:       530.0000000
  free_energy:      -112.3196264
  entropy:           363.7142821
  heat_capacity:     146.8644121
  energy:             80.4489431

- temperature:       540.0000000
  free_energy:      -115.9705408
  entropy:           366.4603127
  heat_capacity:     146.9517956
  energy:             81.9180281

- temperature:       550.0000000
  free_energy:      -119.6486699
  entropy:           369.1575158
  heat_capacity:     147.0346081
  energy:             83.3879638

- temperature:       560.0000000
  free_energy:      -123.3535340
  entropy:           371.8075714
  heat_capacity:     147.1131606
  energy:             84.8587060

- temperature:       570.0000000
  free_energy:      -127.0846695
  entropy:           374.4120759
  heat_capacity:     147.1877380
  energy:             86.3302137

- temperature:       580.0000000
  free_energy:      -130.8416287
  entropy:           376.9725468
  heat_capacity:     147.2586022
  energy:             87.8024484

- temperature:       590.0000000
  free_energy:      -134.6239785
  entropy:           379.4904283
  heat_capacity:     147.3259937
  energy:             89.2753742

- temperature:       600.0000000
  free_energy:      -138.4312999
  entropy:           381.9670956
  heat_capacity:     147.3901344
  energy:             90.7489575

- temperature:       610.0000000
  free_energy:      -142.2631874
  entropy:           384.4038593
  heat_capacity:     147.4512286
  energy:             92.2231667

- temperature:       620.0000000
  free_energy:      -146.1192482
  entropy:           386.8019690
  heat_capacity:     147.5094650
  energy:             93.6979725

- temperature:       630.0000000
  free_energy:      -149.9991019
  entropy:           389.1626175
  heat_capacity:     147.5650179
  energy:             95.1733471

- temperature:       640.0000000
  free_energy:      -153.9023795
  entropy:           391.4869438
  heat_capacity:     147.6180488
  energy:             96.6492645

- temperature:       650.0000000
  free_energy:      -157.8287234
  entropy:           393.7760362
  heat_capacity:     147.6687071
  energy:             98.1257002

- temperature:       660.0000000
  free_energy:      -161.7777863
  entropy:           396.0309355
  heat_capacity:     147.7171315
  energy:             99.6026312

- temperature:       670.0000000
  free_energy:      -165.7492314
  entropy:           398.2526376
  heat_capacity:     147.7634507
  energy:            101.0800358

- temperature:       680.0000000
  free_energy:      -169.7427316
  entropy:           400.4420958
  heat_capacity:     147.8077843
  energy:            102.5578936

- temperature:       690.0000000
  free_energy:      -173.7579689
  entropy:           402.6002234
  heat_capacity:     147.8502436
  energy:            104.0361852

- temperature:       700.0000000
  free_energy:      -177.7946345
  entropy:           404.7278958
  heat_capacity:     147.8909324
  energy:            105.5148925

- temperature:       710.0000000
  free_energy:      -181.8524281
  entropy:           406.8259527
  heat_capacity:     147.9299471
  energy:            106.9939983

- temperature:       720.0000000
  free_energy:      -185.9310575
  entropy:           408.8951996
  heat_capacity:     147.9673780
  energy:            108.4734862

- temperature:       730.0000000
  free_energy:      -190.0302386
  entropy:           410.9364103
  heat_capacity:     148.0033092
  energy:            109.9533409

- temperature:       740.0000000
  free_energy:      -194.1496948
  entropy:           412.9503276
  heat_capacity:     148.0378195
  energy:            111.4335476

- temperature:       750.0000000
  free_energy:      -198.2891566
  entropy:           414.9376658
  heat_capacity:     148.0709824
  energy:            112.9140927

- temperature:       760.0000000
  free_energy:      -202.4483618
  entropy:           416.8991116
  heat_capacity:     148.1028669
  energy:            114.3949630

- temperature:       770.0000000
  free_energy:      -206.6270547
  entropy:           418.8353257
  heat_capacity:     148.1335376
  energy:            115.8761460

- temperature:       780.0000000
  free_energy:      -210.8249863
  entropy:           420.7469439
  heat_capacity:     148.1630551
  energy:            117.3576299

- temperature:       790.0000000
  free_energy:      -215.0419137
  entropy:           422.6345787
  heat_capacity:     148.1914763
  energy:            118.8394035

- temperature:       800.0000000
  free_energy:      -219.2775999
  entropy:           424.4988199
  heat_capacity:     148.2188545
  energy:            120.3214560

- temperature:       810.0000000
  free_energy:      -223.5318140
  entropy:           426.3402361
  heat_capacity:     148.2452400
  energy:            121.8037773

- temperature:       820.0000000
  free_energy:      -227.8043304
  entropy:           428.1593756
  heat_capacity:     148.2706801
  energy:            123.2863576

- temperature:       830.0000000
  free_energy:      -232.0949290
  entropy:           429.9567673
  heat_capacity:     148.2952192
  energy:            124.7691879

- temperature:       840.0000000
  free_energy:      -236.4033949
  entropy:           431.7329215
  heat_capacity:     148.3188992
  energy:            126.2522592

- temperature:       850.0000000
  free_energy:      -240.7295183
  entropy:           433.4883311
  heat_capacity:     148.3417596
  energy:            127.7355631

- temperature:       860.0000000
  free_energy:      -245.0730940
  entropy:           435.2234718
  heat_capacity:     148.3638377
  energy:            129.2190917

- temperature:       870.0000000
  free_energy:      -249.4339217
  entropy:           436.9388035
  heat_capacity:     148.3851687
  energy:            130.7028374

- temperature:       880.0000000
  free_energy:      -253.8118055
  entropy:           438.6347707
  heat_capacity:     148.4057858
  energy:            132.1867927

- temperature:       890.0000000
  free_energy:      -258.2065540
  entropy:           440.3118032
  heat_capacity:     148.4257204
  energy:            133.6709508

- temperature:       900.0000000
  free_energy:      -262.6179798
  entropy:           441.9703165
  heat_capacity:     148.4450021
  energy:            135.1553050

- temperature:       910.0000000
  free_energy:      -267.0458999
  entropy:           443.6107129
  heat_capacity:     148.4636592
  energy:            136.6398488

- temperature:       920.0000000
  free_energy:      -271.4901350
  entropy:           445.2333817
  heat_capacity:     148.4817182
  energy:            138.1245762

- temperature:       930.0000000
  free_energy:      -275.9505097
  entropy:           446.8387000
  heat_capacity:     148.4992044
  energy:            139.6094812

- temperature:       940.0000000
  free_energy:      -280.4268524
  entropy:           448.4270328
  heat_capacity:     148.5161416
  energy:            141.0945584

- temperature:       950.0000000
  free_energy:      -284.9189949
  entropy:           449.9987340
  heat_capacity:     148.5325526
  energy:            142.5798023

- temperature:       960.0000000
  free_energy:      -289.4267728
  entropy:           451.5541464
  heat_capacity:     148.5484588
  energy:            144.0652078

- temperature:       970.0000000
  free_energy:      -293.9500247
  entropy:           453.0936027
  heat_capacity:     148.5638808
  energy:            145.5507699

- temperature:       980.0000000
  free_energy:      -298.4885927
  entropy:           454.6174251
  heat_capacity:     148.5788378
  energy:            147.0364839

- temperature:       990.0000000
  free_energy:      -303.0423221
  entropy:           456.1259265
  heat_capacity:     148.5933484
  energy:            148.5223452

- temperature:      1000.0000000
  free_energy:      -307.6110612
  entropy:           457.6194106
  heat_capacity:     148.6074300
  energy:            150.0083494
