phonopy:
  version: "2.37.1"
  frequency_unit_conversion_factor: 15.633302
  symmetry_tolerance: 1.00000e-05

space_group:
  type: "P1"
  number: 1
  Hall_symbol: "P 1"

primitive_matrix:
- [ -0.000000000000000, -1.000000000000000,  0.000000000000000 ]
- [  1.000000000000000,  0.000000000000000,  0.000000000000000 ]
- [  0.000000000000000,  0.000000000000000,  1.000000000000000 ]

supercell_matrix:
- [   2,   0,   0 ]
- [   0,   2,   0 ]
- [   0,   0,   2 ]

primitive_cell:
  lattice:
  - [    -0.000843712095032,     5.817747106334205,     0.000000000000000 ] # a
  - [    -6.747027675983440,     0.000000000000000,     0.000000000000000 ] # b
  - [    -0.000014099865215,     0.000423458293309,     6.753864153813753 ] # c
  points:
  - symbol: Li # 1
    coordinates: [  0.148322658851644,  0.270696981876387,  0.634582745685956 ]
    mass: 6.940000
  - symbol: Li # 2
    coordinates: [  0.648692963779326,  0.770742538295204,  0.134532773602230 ]
    mass: 6.940000
  - symbol: Li # 3
    coordinates: [  0.148807769149175,  0.770702662983324,  0.134620517178140 ]
    mass: 6.940000
  - symbol: Sn # 4
    coordinates: [  0.400136141095056,  0.103629029498773,  0.312136208422356 ]
    mass: 118.710000
  - symbol: Sn # 5
    coordinates: [  0.400006815959413,  0.593270740419036,  0.467005269252371 ]
    mass: 118.710000
  - symbol: Sn # 6
    coordinates: [  0.897447201997877,  0.947724823292586,  0.467202419605498 ]
    mass: 118.710000
  - symbol: Sn # 7
    coordinates: [  0.897813576078566,  0.594035896429407,  0.801784529510310 ]
    mass: 118.710000
  - symbol: Sn # 8
    coordinates: [  0.897289483707858,  0.437689455897949,  0.311810712745183 ]
    mass: 118.710000
  - symbol: Sn # 9
    coordinates: [  0.400436252776045,  0.437814867737110,  0.956729832722545 ]
    mass: 118.710000
  - symbol: Sn # 10
    coordinates: [  0.399794966414028,  0.947862747276405,  0.801900266811366 ]
    mass: 118.710000
  - symbol: Sn # 11
    coordinates: [  0.897202961153142,  0.103809797721892,  0.957267035080697 ]
    mass: 118.710000
  reciprocal_lattice: # without 2pi
  - [    -0.000000000000000,     0.171887842789046,    -0.000010777138967 ] # a*
  - [    -0.148213413079596,    -0.000021494480075,    -0.000000308073583 ] # b*
  - [    -0.000000000000000,     0.000000000000000,     0.148063386711046 ] # c*

unit_cell:
  lattice:
  - [     6.747027675983440,     0.000000000000000,     0.000000000000000 ] # a
  - [    -0.000843712095031,     5.817747106334205,     0.000000000000000 ] # b
  - [    -0.000014099865215,     0.000423458293309,     6.753864153813755 ] # c
  points:
  - symbol: Li # 1
    coordinates: [  0.729303018123613,  0.148322658851644,  0.634582745685956 ]
    mass: 6.940000
    reduced_to: 1
  - symbol: Li # 2
    coordinates: [  0.229257461704796,  0.648692963779326,  0.134532773602230 ]
    mass: 6.940000
    reduced_to: 2
  - symbol: Li # 3
    coordinates: [  0.229297337016676,  0.148807769149175,  0.134620517178140 ]
    mass: 6.940000
    reduced_to: 3
  - symbol: Sn # 4
    coordinates: [  0.896370970501227,  0.400136141095056,  0.312136208422356 ]
    mass: 118.710000
    reduced_to: 4
  - symbol: Sn # 5
    coordinates: [  0.406729259580964,  0.400006815959413,  0.467005269252371 ]
    mass: 118.710000
    reduced_to: 5
  - symbol: Sn # 6
    coordinates: [  0.052275176707414,  0.897447201997877,  0.467202419605498 ]
    mass: 118.710000
    reduced_to: 6
  - symbol: Sn # 7
    coordinates: [  0.405964103570593,  0.897813576078566,  0.801784529510309 ]
    mass: 118.710000
    reduced_to: 7
  - symbol: Sn # 8
    coordinates: [  0.562310544102051,  0.897289483707858,  0.311810712745183 ]
    mass: 118.710000
    reduced_to: 8
  - symbol: Sn # 9
    coordinates: [  0.562185132262890,  0.400436252776045,  0.956729832722545 ]
    mass: 118.710000
    reduced_to: 9
  - symbol: Sn # 10
    coordinates: [  0.052137252723595,  0.399794966414028,  0.801900266811365 ]
    mass: 118.710000
    reduced_to: 10
  - symbol: Sn # 11
    coordinates: [  0.896190202278108,  0.897202961153142,  0.957267035080697 ]
    mass: 118.710000
    reduced_to: 11

supercell:
  lattice:
  - [    13.494055351966880,     0.000000000000000,     0.000000000000000 ] # a
  - [    -0.001687424190062,    11.635494212668410,     0.000000000000000 ] # b
  - [    -0.000028199730430,     0.000846916586618,    13.507728307627509 ] # c
  points:
  - symbol: Li # 1
    coordinates: [  0.364651509061806,  0.074161329425822,  0.317291372842978 ]
    mass: 6.940000
    reduced_to: 1
  - symbol: Li # 2
    coordinates: [  0.864651509061806,  0.074161329425822,  0.317291372842978 ]
    mass: 6.940000
    reduced_to: 1
  - symbol: Li # 3
    coordinates: [  0.364651509061806,  0.574161329425822,  0.317291372842978 ]
    mass: 6.940000
    reduced_to: 1
  - symbol: Li # 4
    coordinates: [  0.864651509061806,  0.574161329425822,  0.317291372842978 ]
    mass: 6.940000
    reduced_to: 1
  - symbol: Li # 5
    coordinates: [  0.364651509061806,  0.074161329425822,  0.817291372842978 ]
    mass: 6.940000
    reduced_to: 1
  - symbol: Li # 6
    coordinates: [  0.864651509061806,  0.074161329425822,  0.817291372842978 ]
    mass: 6.940000
    reduced_to: 1
  - symbol: Li # 7
    coordinates: [  0.364651509061806,  0.574161329425822,  0.817291372842978 ]
    mass: 6.940000
    reduced_to: 1
  - symbol: Li # 8
    coordinates: [  0.864651509061806,  0.574161329425822,  0.817291372842978 ]
    mass: 6.940000
    reduced_to: 1
  - symbol: Li # 9
    coordinates: [  0.114628730852398,  0.324346481889663,  0.067266386801115 ]
    mass: 6.940000
    reduced_to: 9
  - symbol: Li # 10
    coordinates: [  0.614628730852398,  0.324346481889663,  0.067266386801115 ]
    mass: 6.940000
    reduced_to: 9
  - symbol: Li # 11
    coordinates: [  0.114628730852398,  0.824346481889663,  0.067266386801115 ]
    mass: 6.940000
    reduced_to: 9
  - symbol: Li # 12
    coordinates: [  0.614628730852398,  0.824346481889663,  0.067266386801115 ]
    mass: 6.940000
    reduced_to: 9
  - symbol: Li # 13
    coordinates: [  0.114628730852398,  0.324346481889663,  0.567266386801115 ]
    mass: 6.940000
    reduced_to: 9
  - symbol: Li # 14
    coordinates: [  0.614628730852398,  0.324346481889663,  0.567266386801115 ]
    mass: 6.940000
    reduced_to: 9
  - symbol: Li # 15
    coordinates: [  0.114628730852398,  0.824346481889663,  0.567266386801115 ]
    mass: 6.940000
    reduced_to: 9
  - symbol: Li # 16
    coordinates: [  0.614628730852398,  0.824346481889663,  0.567266386801115 ]
    mass: 6.940000
    reduced_to: 9
  - symbol: Li # 17
    coordinates: [  0.114648668508338,  0.074403884574588,  0.067310258589070 ]
    mass: 6.940000
    reduced_to: 17
  - symbol: Li # 18
    coordinates: [  0.614648668508338,  0.074403884574588,  0.067310258589070 ]
    mass: 6.940000
    reduced_to: 17
  - symbol: Li # 19
    coordinates: [  0.114648668508338,  0.574403884574588,  0.067310258589070 ]
    mass: 6.940000
    reduced_to: 17
  - symbol: Li # 20
    coordinates: [  0.614648668508338,  0.574403884574588,  0.067310258589070 ]
    mass: 6.940000
    reduced_to: 17
  - symbol: Li # 21
    coordinates: [  0.114648668508338,  0.074403884574588,  0.567310258589070 ]
    mass: 6.940000
    reduced_to: 17
  - symbol: Li # 22
    coordinates: [  0.614648668508338,  0.074403884574588,  0.567310258589070 ]
    mass: 6.940000
    reduced_to: 17
  - symbol: Li # 23
    coordinates: [  0.114648668508338,  0.574403884574588,  0.567310258589070 ]
    mass: 6.940000
    reduced_to: 17
  - symbol: Li # 24
    coordinates: [  0.614648668508338,  0.574403884574588,  0.567310258589070 ]
    mass: 6.940000
    reduced_to: 17
  - symbol: Sn # 25
    coordinates: [  0.448185485250613,  0.200068070547528,  0.156068104211178 ]
    mass: 118.710000
    reduced_to: 25
  - symbol: Sn # 26
    coordinates: [  0.948185485250613,  0.200068070547528,  0.156068104211178 ]
    mass: 118.710000
    reduced_to: 25
  - symbol: Sn # 27
    coordinates: [  0.448185485250613,  0.700068070547528,  0.156068104211178 ]
    mass: 118.710000
    reduced_to: 25
  - symbol: Sn # 28
    coordinates: [  0.948185485250613,  0.700068070547528,  0.156068104211178 ]
    mass: 118.710000
    reduced_to: 25
  - symbol: Sn # 29
    coordinates: [  0.448185485250613,  0.200068070547528,  0.656068104211178 ]
    mass: 118.710000
    reduced_to: 25
  - symbol: Sn # 30
    coordinates: [  0.948185485250613,  0.200068070547528,  0.656068104211178 ]
    mass: 118.710000
    reduced_to: 25
  - symbol: Sn # 31
    coordinates: [  0.448185485250613,  0.700068070547528,  0.656068104211178 ]
    mass: 118.710000
    reduced_to: 25
  - symbol: Sn # 32
    coordinates: [  0.948185485250613,  0.700068070547528,  0.656068104211178 ]
    mass: 118.710000
    reduced_to: 25
  - symbol: Sn # 33
    coordinates: [  0.203364629790482,  0.200003407979706,  0.233502634626185 ]
    mass: 118.710000
    reduced_to: 33
  - symbol: Sn # 34
    coordinates: [  0.703364629790482,  0.200003407979706,  0.233502634626185 ]
    mass: 118.710000
    reduced_to: 33
  - symbol: Sn # 35
    coordinates: [  0.203364629790482,  0.700003407979707,  0.233502634626185 ]
    mass: 118.710000
    reduced_to: 33
  - symbol: Sn # 36
    coordinates: [  0.703364629790482,  0.700003407979707,  0.233502634626185 ]
    mass: 118.710000
    reduced_to: 33
  - symbol: Sn # 37
    coordinates: [  0.203364629790482,  0.200003407979706,  0.733502634626185 ]
    mass: 118.710000
    reduced_to: 33
  - symbol: Sn # 38
    coordinates: [  0.703364629790482,  0.200003407979706,  0.733502634626185 ]
    mass: 118.710000
    reduced_to: 33
  - symbol: Sn # 39
    coordinates: [  0.203364629790482,  0.700003407979707,  0.733502634626185 ]
    mass: 118.710000
    reduced_to: 33
  - symbol: Sn # 40
    coordinates: [  0.703364629790482,  0.700003407979707,  0.733502634626185 ]
    mass: 118.710000
    reduced_to: 33
  - symbol: Sn # 41
    coordinates: [  0.026137588353707,  0.448723600998939,  0.233601209802749 ]
    mass: 118.710000
    reduced_to: 41
  - symbol: Sn # 42
    coordinates: [  0.526137588353707,  0.448723600998939,  0.233601209802749 ]
    mass: 118.710000
    reduced_to: 41
  - symbol: Sn # 43
    coordinates: [  0.026137588353707,  0.948723600998939,  0.233601209802749 ]
    mass: 118.710000
    reduced_to: 41
  - symbol: Sn # 44
    coordinates: [  0.526137588353707,  0.948723600998939,  0.233601209802749 ]
    mass: 118.710000
    reduced_to: 41
  - symbol: Sn # 45
    coordinates: [  0.026137588353707,  0.448723600998939,  0.733601209802749 ]
    mass: 118.710000
    reduced_to: 41
  - symbol: Sn # 46
    coordinates: [  0.526137588353707,  0.448723600998939,  0.733601209802749 ]
    mass: 118.710000
    reduced_to: 41
  - symbol: Sn # 47
    coordinates: [  0.026137588353707,  0.948723600998939,  0.733601209802749 ]
    mass: 118.710000
    reduced_to: 41
  - symbol: Sn # 48
    coordinates: [  0.526137588353707,  0.948723600998939,  0.733601209802749 ]
    mass: 118.710000
    reduced_to: 41
  - symbol: Sn # 49
    coordinates: [  0.202982051785297,  0.448906788039283,  0.400892264755155 ]
    mass: 118.710000
    reduced_to: 49
  - symbol: Sn # 50
    coordinates: [  0.702982051785297,  0.448906788039283,  0.400892264755155 ]
    mass: 118.710000
    reduced_to: 49
  - symbol: Sn # 51
    coordinates: [  0.202982051785297,  0.948906788039283,  0.400892264755155 ]
    mass: 118.710000
    reduced_to: 49
  - symbol: Sn # 52
    coordinates: [  0.702982051785297,  0.948906788039283,  0.400892264755155 ]
    mass: 118.710000
    reduced_to: 49
  - symbol: Sn # 53
    coordinates: [  0.202982051785297,  0.448906788039283,  0.900892264755155 ]
    mass: 118.710000
    reduced_to: 49
  - symbol: Sn # 54
    coordinates: [  0.702982051785297,  0.448906788039283,  0.900892264755155 ]
    mass: 118.710000
    reduced_to: 49
  - symbol: Sn # 55
    coordinates: [  0.202982051785297,  0.948906788039283,  0.900892264755155 ]
    mass: 118.710000
    reduced_to: 49
  - symbol: Sn # 56
    coordinates: [  0.702982051785297,  0.948906788039283,  0.900892264755155 ]
    mass: 118.710000
    reduced_to: 49
  - symbol: Sn # 57
    coordinates: [  0.281155272051025,  0.448644741853929,  0.155905356372591 ]
    mass: 118.710000
    reduced_to: 57
  - symbol: Sn # 58
    coordinates: [  0.781155272051026,  0.448644741853929,  0.155905356372591 ]
    mass: 118.710000
    reduced_to: 57
  - symbol: Sn # 59
    coordinates: [  0.281155272051025,  0.948644741853929,  0.155905356372591 ]
    mass: 118.710000
    reduced_to: 57
  - symbol: Sn # 60
    coordinates: [  0.781155272051026,  0.948644741853929,  0.155905356372591 ]
    mass: 118.710000
    reduced_to: 57
  - symbol: Sn # 61
    coordinates: [  0.281155272051025,  0.448644741853929,  0.655905356372591 ]
    mass: 118.710000
    reduced_to: 57
  - symbol: Sn # 62
    coordinates: [  0.781155272051026,  0.448644741853929,  0.655905356372591 ]
    mass: 118.710000
    reduced_to: 57
  - symbol: Sn # 63
    coordinates: [  0.281155272051025,  0.948644741853929,  0.655905356372591 ]
    mass: 118.710000
    reduced_to: 57
  - symbol: Sn # 64
    coordinates: [  0.781155272051026,  0.948644741853929,  0.655905356372591 ]
    mass: 118.710000
    reduced_to: 57
  - symbol: Sn # 65
    coordinates: [  0.281092566131445,  0.200218126388023,  0.478364916361273 ]
    mass: 118.710000
    reduced_to: 65
  - symbol: Sn # 66
    coordinates: [  0.781092566131445,  0.200218126388023,  0.478364916361273 ]
    mass: 118.710000
    reduced_to: 65
  - symbol: Sn # 67
    coordinates: [  0.281092566131445,  0.700218126388023,  0.478364916361273 ]
    mass: 118.710000
    reduced_to: 65
  - symbol: Sn # 68
    coordinates: [  0.781092566131445,  0.700218126388023,  0.478364916361273 ]
    mass: 118.710000
    reduced_to: 65
  - symbol: Sn # 69
    coordinates: [  0.281092566131445,  0.200218126388023,  0.978364916361273 ]
    mass: 118.710000
    reduced_to: 65
  - symbol: Sn # 70
    coordinates: [  0.781092566131445,  0.200218126388023,  0.978364916361273 ]
    mass: 118.710000
    reduced_to: 65
  - symbol: Sn # 71
    coordinates: [  0.281092566131445,  0.700218126388023,  0.978364916361273 ]
    mass: 118.710000
    reduced_to: 65
  - symbol: Sn # 72
    coordinates: [  0.781092566131445,  0.700218126388023,  0.978364916361273 ]
    mass: 118.710000
    reduced_to: 65
  - symbol: Sn # 73
    coordinates: [  0.026068626361797,  0.199897483207014,  0.400950133405683 ]
    mass: 118.710000
    reduced_to: 73
  - symbol: Sn # 74
    coordinates: [  0.526068626361797,  0.199897483207014,  0.400950133405683 ]
    mass: 118.710000
    reduced_to: 73
  - symbol: Sn # 75
    coordinates: [  0.026068626361797,  0.699897483207014,  0.400950133405683 ]
    mass: 118.710000
    reduced_to: 73
  - symbol: Sn # 76
    coordinates: [  0.526068626361797,  0.699897483207014,  0.400950133405683 ]
    mass: 118.710000
    reduced_to: 73
  - symbol: Sn # 77
    coordinates: [  0.026068626361797,  0.199897483207014,  0.900950133405683 ]
    mass: 118.710000
    reduced_to: 73
  - symbol: Sn # 78
    coordinates: [  0.526068626361797,  0.199897483207014,  0.900950133405683 ]
    mass: 118.710000
    reduced_to: 73
  - symbol: Sn # 79
    coordinates: [  0.026068626361797,  0.699897483207014,  0.900950133405683 ]
    mass: 118.710000
    reduced_to: 73
  - symbol: Sn # 80
    coordinates: [  0.526068626361797,  0.699897483207014,  0.900950133405683 ]
    mass: 118.710000
    reduced_to: 73
  - symbol: Sn # 81
    coordinates: [  0.448095101139054,  0.448601480576571,  0.478633517540348 ]
    mass: 118.710000
    reduced_to: 81
  - symbol: Sn # 82
    coordinates: [  0.948095101139054,  0.448601480576571,  0.478633517540348 ]
    mass: 118.710000
    reduced_to: 81
  - symbol: Sn # 83
    coordinates: [  0.448095101139054,  0.948601480576571,  0.478633517540348 ]
    mass: 118.710000
    reduced_to: 81
  - symbol: Sn # 84
    coordinates: [  0.948095101139054,  0.948601480576571,  0.478633517540348 ]
    mass: 118.710000
    reduced_to: 81
  - symbol: Sn # 85
    coordinates: [  0.448095101139054,  0.448601480576571,  0.978633517540348 ]
    mass: 118.710000
    reduced_to: 81
  - symbol: Sn # 86
    coordinates: [  0.948095101139054,  0.448601480576571,  0.978633517540348 ]
    mass: 118.710000
    reduced_to: 81
  - symbol: Sn # 87
    coordinates: [  0.448095101139054,  0.948601480576571,  0.978633517540348 ]
    mass: 118.710000
    reduced_to: 81
  - symbol: Sn # 88
    coordinates: [  0.948095101139054,  0.948601480576571,  0.978633517540348 ]
    mass: 118.710000
    reduced_to: 81

displacements:
- atom:    1
  displacement:
    [   0.0100000000000000,  0.0000000000000000,  0.0000000000000000 ]
  forces:
  - [  -0.0310020260512829,  0.0023692734539509, -0.0006552630802616 ]
  - [  -0.0004285822215024,  0.0023627388291061, -0.0006508490769193 ]
  - [   0.0000044614425860,  0.0023615253157914, -0.0006506785284728 ]
  - [  -0.0003025620244443,  0.0023620035499334, -0.0006511200917885 ]
  - [  -0.0002021142281592,  0.0023613292723894, -0.0006516324356198 ]
  - [  -0.0001976118364837,  0.0023614778183401, -0.0006522736512125 ]
  - [  -0.0002305420057382,  0.0023635709658265, -0.0006536254659295 ]
  - [  -0.0002170933003072,  0.0023631355725229, -0.0006534230778925 ]
  - [  -0.0003074432606809,  0.0012437175028026, -0.0014919859822839 ]
  - [  -0.0004379760939628,  0.0001461361825932, -0.0001218534016516 ]
  - [  -0.0004370502138045,  0.0001459112972952, -0.0006985103827901 ]
  - [  -0.0003009720239788,  0.0012405639281496,  0.0006722460966557 ]
  - [  -0.0004365144704934,  0.0009729141602293, -0.0001197408419102 ]
  - [  -0.0003000822616741, -0.0001196844386868, -0.0014893580228090 ]
  - [  -0.0003064987540711, -0.0001308623468503,  0.0006842471193522 ]
  - [  -0.0004396156873554,  0.0009700279915705, -0.0006948199588805 ]
  - [   0.0001986513379961, -0.0002378442441113, -0.0005258935270831 ]
  - [   0.0001922956435010, -0.0002365094696870, -0.0009543956839480 ]
  - [  -0.0000333441421390, -0.0001586617872817, -0.0007772355456837 ]
  - [  -0.0000310357427225, -0.0001562516554259, -0.0007147844880819 ]
  - [   0.0001986422576010, -0.0001114572223742, -0.0009559412719682 ]
  - [   0.0001902248477563, -0.0001161082327599, -0.0005314726149663 ]
  - [  -0.0000317206140608, -0.0001956872292794, -0.0007113629253581 ]
  - [  -0.0000272900797427, -0.0001942406088347, -0.0007755992119201 ]
  - [  -0.0025478638708591,  0.0164782684296370,  0.0399188622832298 ]
  - [  -0.0041091777384281,  0.0140341408550739,  0.0436460934579372 ]
  - [  -0.0040705166757107,  0.0139651410281658,  0.0436741970479488 ]
  - [  -0.0041411444544792,  0.0139647610485554,  0.0436756648123264 ]
  - [  -0.0039875283837318,  0.0140301845967770,  0.0438512638211250 ]
  - [  -0.0040906667709351,  0.0139950085431337,  0.0437103286385536 ]
  - [  -0.0040730647742748,  0.0139836836606264,  0.0437425747513771 ]
  - [  -0.0040661059319973,  0.0140219032764435,  0.0437008887529373 ]
  - [   0.0522705316543579,  0.0099222157150507,  0.0118822641670704 ]
  - [   0.0464811883866787,  0.0144644454121590,  0.0066558793187141 ]
  - [   0.0461054891347885,  0.0144942915067077,  0.0070333257317543 ]
  - [   0.0461268760263920,  0.0142321456223726,  0.0069170817732811 ]
  - [   0.0460599735379219,  0.0143059538677335,  0.0068647377192974 ]
  - [   0.0460851415991783,  0.0143198939040303,  0.0068941414356232 ]
  - [   0.0460309237241745,  0.0143072502687573,  0.0068517550826073 ]
  - [   0.0460504889488220,  0.0143258795142174,  0.0068542808294296 ]
  - [  -0.0468450896441936, -0.0150367468595505,  0.0061070509254932 ]
  - [  -0.0468684956431389, -0.0147757343947887,  0.0059925727546215 ]
  - [  -0.0464809499680996, -0.0148007674142718,  0.0063766352832317 ]
  - [  -0.0404815487563610, -0.0194969438016415,  0.0010405145585537 ]
  - [  -0.0469237416982651, -0.0149430232122540,  0.0061691664159298 ]
  - [  -0.0469484999775887, -0.0149591742083430,  0.0061759985983372 ]
  - [  -0.0468934699892998, -0.0149453189224005,  0.0061312839388847 ]
  - [  -0.0469131655991077, -0.0149603327736259,  0.0061585381627083 ]
  - [   0.0472981370985508, -0.0161376036703587, -0.0059106834232807 ]
  - [   0.0473216697573662, -0.0158779174089432, -0.0057909861207008 ]
  - [   0.0535173565149307, -0.0115564186125994, -0.0107769891619682 ]
  - [   0.0476827509701252, -0.0161117054522038, -0.0055301785469055 ]
  - [   0.0472229570150375, -0.0159538164734840, -0.0057275816798210 ]
  - [   0.0472449362277985, -0.0159709788858891, -0.0057297721505165 ]
  - [   0.0472572445869446, -0.0159513801336288, -0.0057437494397163 ]
  - [   0.0472803935408592, -0.0159665383398533, -0.0057719610631466 ]
  - [   0.0037082135677338, -0.0144527768716216,  0.0442075133323669 ]
  - [   0.0036429166793823, -0.0144482031464577,  0.0442035011947155 ]
  - [   0.0052313469350338, -0.0119534544646740,  0.0479468591511250 ]
  - [   0.0036641024053097, -0.0143824759870768,  0.0442343950271606 ]
  - [   0.0037091486155987, -0.0144290290772915,  0.0441411472856998 ]
  - [   0.0037147365510464, -0.0143910236656666,  0.0441776178777218 ]
  - [   0.0038021765649319, -0.0143844634294510,  0.0440240427851677 ]
  - [   0.0036915056407452, -0.0144177936017513,  0.0441721938550472 ]
  - [   0.0055097825825214,  0.0112551096826792, -0.0470081791281700 ]
  - [   0.0039373934268951,  0.0136836413294077, -0.0432917214930058 ]
  - [   0.0039794258773327,  0.0137559697031975, -0.0432670824229717 ]
  - [   0.0039127804338932,  0.0137480236589909, -0.0432595051825047 ]
  - [   0.0040711238980293,  0.0136841721832752, -0.0430767908692360 ]
  - [   0.0039612986147404,  0.0137198921293020, -0.0432266667485237 ]
  - [   0.0039815977215767,  0.0137301683425903, -0.0431948155164719 ]
  - [   0.0039847269654274,  0.0136926081031561, -0.0432348623871803 ]
  - [  -0.0458552278578281,  0.0151346325874329, -0.0062845125794411 ]
  - [  -0.0398753620684147,  0.0198183767497540, -0.0009644515812397 ]
  - [  -0.0462203994393349,  0.0153681430965662, -0.0060190260410309 ]
  - [  -0.0462374500930309,  0.0151085704565048, -0.0059052146971226 ]
  - [  -0.0462652593851089,  0.0152785386890173, -0.0060412660241127 ]
  - [  -0.0462864600121975,  0.0152951348572969, -0.0060648396611214 ]
  - [  -0.0462957210838795,  0.0152750331908464, -0.0060788765549660 ]
  - [  -0.0463153272867203,  0.0152906756848097, -0.0060816667973995 ]
  - [  -0.0035475492477417, -0.0146996099501848, -0.0440282411873341 ]
  - [  -0.0036114230751991, -0.0146973878145218, -0.0440269485116005 ]
  - [  -0.0020195394754410, -0.0172137990593910, -0.0402654483914375 ]
  - [  -0.0035847574472427, -0.0147664509713650, -0.0439972132444382 ]
  - [  -0.0035427808761597, -0.0147203691303730, -0.0440934523940086 ]
  - [  -0.0035355165600777, -0.0147571824491024, -0.0440511293709278 ]
  - [  -0.0034555681049824, -0.0147638376802206, -0.0442013442516327 ]
  - [  -0.0035631619393826, -0.0147286560386419, -0.0440619513392448 ]
- atom:    1
  displacement:
    [  -0.0100000000000000,  0.0000000000000000,  0.0000000000000000 ]
  forces:
  - [   0.0305415838956833,  0.0023536342196167, -0.0006474887486547 ]
  - [  -0.0000328334717778,  0.0023633702658117, -0.0006497686263174 ]
  - [  -0.0004629708710127,  0.0023616657126695, -0.0006506241625175 ]
  - [  -0.0001566011342220,  0.0023619690909982, -0.0006512944819406 ]
  - [  -0.0002543963491917,  0.0023616692051291, -0.0006525621283799 ]
  - [  -0.0002594307588879,  0.0023615953978151, -0.0006523652700707 ]
  - [  -0.0002252176345792,  0.0023635858669877, -0.0006532561965287 ]
  - [  -0.0002363657113165,  0.0023630340583622, -0.0006535261636600 ]
  - [   0.0007231085328385, -0.0001185141154565,  0.0006656242185272 ]
  - [   0.0008553952211514,  0.0009717603679746, -0.0006999003235251 ]
  - [   0.0008611005032435,  0.0009710922604427, -0.0001265201717615 ]
  - [   0.0007277925033122, -0.0001313496904913, -0.0015019921120256 ]
  - [   0.0008597021223977,  0.0001468803966418, -0.0007016275776550 ]
  - [   0.0007272872026078,  0.0012445225147530,  0.0006722193793394 ]
  - [   0.0007204993162304,  0.0012450241483748, -0.0014949452597648 ]
  - [   0.0008582742884755,  0.0001467673864681, -0.0001234981464222 ]
  - [  -0.0002344436943531, -0.0001147834118456, -0.0009582871571183 ]
  - [  -0.0002402501413599, -0.0001077382767107, -0.0005294331349432 ]
  - [  -0.0000129372347146, -0.0001938489731401, -0.0007146353018470 ]
  - [  -0.0000111410627142, -0.0001926926488522, -0.0007773824036121 ]
  - [  -0.0002324072411284, -0.0002386455453234, -0.0005326886894181 ]
  - [  -0.0002384504768997, -0.0002391994930804, -0.0009597478201613 ]
  - [  -0.0000114865833893, -0.0001598507660674, -0.0007739453576505 ]
  - [  -0.0000068559311330, -0.0001592731568962, -0.0007129531004466 ]
  - [  -0.0056637749075890,  0.0115764327347279,  0.0474740415811539 ]
  - [  -0.0040919519960880,  0.0140017289668322,  0.0437697544693947 ]
  - [  -0.0041349828243256,  0.0140713974833488,  0.0437417924404144 ]
  - [  -0.0040682405233383,  0.0140642952173948,  0.0437386296689510 ]
  - [  -0.0042282231152058,  0.0140001904219389,  0.0435576178133488 ]
  - [  -0.0041227675974369,  0.0140355043113232,  0.0437052138149738 ]
  - [  -0.0041424483060837,  0.0140451062470675,  0.0436751991510391 ]
  - [  -0.0041466206312180,  0.0140068661421537,  0.0437155291438103 ]
  - [   0.0396577194333076,  0.0188498608767986,  0.0017626881599426 ]
  - [   0.0456241518259048,  0.0141678266227245,  0.0070777907967567 ]
  - [   0.0460071079432964,  0.0141399055719376,  0.0067005492746830 ]
  - [   0.0459822043776512,  0.0144012896344066,  0.0068139471113682 ]
  - [   0.0460515357553959,  0.0143273109570146,  0.0068603344261646 ]
  - [   0.0460332967340946,  0.0143107706680894,  0.0068365596234798 ]
  - [   0.0460853390395641,  0.0143228545784950,  0.0068775340914726 ]
  - [   0.0460613183677197,  0.0143084293231368,  0.0068732649087906 ]
  - [  -0.0469901263713837, -0.0148683218285441,  0.0062105655670166 ]
  - [  -0.0469667389988899, -0.0151288919150829,  0.0063276514410973 ]
  - [  -0.0473526343703270, -0.0150995096191764,  0.0059476159512997 ]
  - [  -0.0531701669096947, -0.0105449538677931,  0.0111913122236729 ]
  - [  -0.0469133928418159, -0.0149599285796285,  0.0061506479978561 ]
  - [  -0.0468939095735550, -0.0149431722238660,  0.0061506442725658 ]
  - [  -0.0469449684023857, -0.0149549469351768,  0.0061893500387669 ]
  - [  -0.0469221882522106, -0.0149395735934377,  0.0061617717146873 ]
  - [   0.0472002327442169, -0.0157876648008823, -0.0055751390755177 ]
  - [   0.0471778847277164, -0.0160469338297844, -0.0056870803236961 ]
  - [   0.0408012606203556, -0.0205056127160788, -0.0006191246211529 ]
  - [   0.0468077771365643, -0.0158116295933723, -0.0059600584208965 ]
  - [   0.0472775697708130, -0.0159696508198977, -0.0057537667453289 ]
  - [   0.0472553446888924, -0.0159541163593531, -0.0057484880089760 ]
  - [   0.0472494401037693, -0.0159720033407211, -0.0057397410273552 ]
  - [   0.0472283139824867, -0.0159573014825583, -0.0057136937975883 ]
  - [   0.0036410801112652, -0.0143513623625040,  0.0441420972347260 ]
  - [   0.0037152506411076, -0.0143472962081432,  0.0441396459937096 ]
  - [   0.0021209269762039, -0.0168633144348860,  0.0403815209865570 ]
  - [   0.0036837086081505, -0.0144159067422152,  0.0441102758049965 ]
  - [   0.0036413520574570, -0.0143690202385187,  0.0442070998251438 ]
  - [   0.0036338716745377, -0.0144057944417000,  0.0441631823778152 ]
  - [   0.0035489723086357, -0.0144127011299133,  0.0443190261721611 ]
  - [   0.0036598406732082, -0.0143774505704641,  0.0441785044968128 ]
  - [   0.0023858621716499,  0.0161660201847553, -0.0394344925880432 ]
  - [   0.0039562694728374,  0.0137165337800980, -0.0431674644351006 ]
  - [   0.0039171986281872,  0.0136467795819044, -0.0431973934173584 ]
  - [   0.0039850622415543,  0.0136486869305372, -0.0431960001587868 ]
  - [   0.0038288980722427,  0.0137142557650805, -0.0433711782097816 ]
  - [   0.0039302781224251,  0.0136795677244663, -0.0432312339544296 ]
  - [   0.0039127729833126,  0.0136688016355038, -0.0432621128857136 ]
  - [   0.0039036348462105,  0.0137079022824764, -0.0432199910283089 ]
  - [  -0.0467140078544617,  0.0154325030744076, -0.0058613941073418 ]
  - [  -0.0525199733674526,  0.0108881331980228, -0.0110845379531384 ]
  - [  -0.0463637523353100,  0.0151990056037903, -0.0061214491724968 ]
  - [  -0.0463368669152260,  0.0154638625681400, -0.0062378868460655 ]
  - [  -0.0463167279958725,  0.0152876488864422, -0.0060995183885098 ]
  - [  -0.0462938807904720,  0.0152738001197577, -0.0060701183974743 ]
  - [  -0.0462852828204632,  0.0152922645211220, -0.0060597322881222 ]
  - [  -0.0462606921792030,  0.0152752827852964, -0.0060552023351192 ]
  - [  -0.0036126002669334, -0.0148025453090668, -0.0440954640507698 ]
  - [  -0.0035392269492149, -0.0147978980094194, -0.0440910384058952 ]
  - [  -0.0051337964832783, -0.0123042240738869, -0.0478395521640778 ]
  - [  -0.0035645775496960, -0.0147326011210680, -0.0441216267645359 ]
  - [  -0.0036102682352066, -0.0147808138281107, -0.0440274626016617 ]
  - [  -0.0036165639758110, -0.0147424880415201, -0.0440653078258038 ]
  - [  -0.0037088841199875, -0.0147352963685989, -0.0439076423645020 ]
  - [  -0.0035942308604717, -0.0147685622796416, -0.0440558157861233 ]
- atom:    1
  displacement:
    [  -0.0000014502385042,  0.0099999998948404,  0.0000000000000000 ]
  forces:
  - [  -0.0002188060898334, -0.0222549885511398, -0.0006506000645459 ]
  - [  -0.0002311234566150,  0.0024256468750536, -0.0006502723554149 ]
  - [  -0.0002292769786436,  0.0021283130627126, -0.0006506941281259 ]
  - [  -0.0002295926096849,  0.0023197757545859, -0.0006510314415209 ]
  - [  -0.0002282434143126,  0.0024279486387968, -0.0006520438473672 ]
  - [  -0.0002285002265126,  0.0023549525067210, -0.0006523289484903 ]
  - [  -0.0002279077598359,  0.0023216782137752, -0.0006534990388900 ]