phonopy:
  version: "2.37.1"
  frequency_unit_conversion_factor: 15.633302
  symmetry_tolerance: 1.00000e-05

space_group:
  type: "Immm"
  number: 71
  Hall_symbol: "-I 2 2"

primitive_matrix:
- [ -1.000000000000000,  0.000000000000000,  0.000000000000000 ]
- [ -1.000000000000000,  0.000000000000000,  1.000000000000000 ]
- [ -1.000000000000000,  1.000000000000000,  0.000000000000000 ]

supercell_matrix:
- [   2,   0,   0 ]
- [   0,   2,   0 ]
- [   0,   0,   2 ]

primitive_cell:
  lattice:
  - [    -4.130506175932593,    -1.557567518783419,    -2.526224159203827 ] # a
  - [    -3.259783653130018,    -2.976728088369878,     2.526224159203827 ] # b
  - [     2.304141371778367,     4.534295607153298,     0.000000000000000 ] # c
  points:
  - symbol: Li # 1
    coordinates: [  0.664281634433503,  0.664281646182146,  0.000000009554152 ]
    mass: 6.940000
  - symbol: Li # 2
    coordinates: [  0.335718375894664,  0.335718394578534,  0.000000047051847 ]
    mass: 6.940000
  - symbol: Sn # 3
    coordinates: [  0.999999987804093,  0.999999958854486,  0.999999941670661 ]
    mass: 118.710000
  reciprocal_lattice: # without 2pi
  - [    -0.196612428520018,     0.099910299197102,    -0.135976922436906 ] # a*
  - [    -0.196612428520018,     0.099910299197102,     0.259870768416926 ] # b*
  - [    -0.196612428520018,     0.320451720983190,     0.123893858423086 ] # c*

unit_cell:
  lattice:
  - [     5.086148457284245,     0.000000000000000,     0.000000000000000 ] # a
  - [     2.304141371778367,     4.534295607153298,     0.000000000000000 ] # b
  - [    -3.259783653130018,    -2.976728088369878,     2.526224159203827 ] # c
  points:
  - symbol: Li # 1
    coordinates: [  0.335718365566497,  0.335718375120649,  0.000000011748643 ]
    mass: 6.940000
    reduced_to: 1
  - symbol: Li # 2
    coordinates: [  0.664281624105336,  0.664281671157183,  0.000000018683870 ]
    mass: 6.940000
    reduced_to: 2
  - symbol: Sn # 3
    coordinates: [  0.000000012195907,  0.999999953866567,  0.999999971050393 ]
    mass: 118.710000
    reduced_to: 3

supercell:
  lattice:
  - [    10.172296914568490,     0.000000000000000,     0.000000000000000 ] # a
  - [     4.608282743556734,     9.068591214306595,     0.000000000000000 ] # b
  - [    -6.519567306260036,    -5.953456176739756,     5.052448318407653 ] # c
  points:
  - symbol: Li # 1
    coordinates: [  0.167859182783249,  0.167859187560324,  0.000000005874322 ]
    mass: 6.940000
    reduced_to: 1
  - symbol: Li # 2
    coordinates: [  0.667859182783249,  0.167859187560324,  0.000000005874322 ]
    mass: 6.940000
    reduced_to: 1
  - symbol: Li # 3
    coordinates: [  0.167859182783249,  0.667859187560324,  0.000000005874322 ]
    mass: 6.940000
    reduced_to: 1
  - symbol: Li # 4
    coordinates: [  0.667859182783249,  0.667859187560324,  0.000000005874322 ]
    mass: 6.940000
    reduced_to: 1
  - symbol: Li # 5
    coordinates: [  0.167859182783249,  0.167859187560324,  0.500000005874322 ]
    mass: 6.940000
    reduced_to: 1
  - symbol: Li # 6
    coordinates: [  0.667859182783249,  0.167859187560324,  0.500000005874322 ]
    mass: 6.940000
    reduced_to: 1
  - symbol: Li # 7
    coordinates: [  0.167859182783249,  0.667859187560324,  0.500000005874322 ]
    mass: 6.940000
    reduced_to: 1
  - symbol: Li # 8
    coordinates: [  0.667859182783249,  0.667859187560324,  0.500000005874322 ]
    mass: 6.940000
    reduced_to: 1
  - symbol: Li # 9
    coordinates: [  0.332140812052668,  0.332140835578592,  0.000000009341935 ]
    mass: 6.940000
    reduced_to: 9
  - symbol: Li # 10
    coordinates: [  0.832140812052668,  0.332140835578592,  0.000000009341935 ]
    mass: 6.940000
    reduced_to: 9
  - symbol: Li # 11
    coordinates: [  0.332140812052668,  0.832140835578592,  0.000000009341935 ]
    mass: 6.940000
    reduced_to: 9
  - symbol: Li # 12
    coordinates: [  0.832140812052668,  0.832140835578592,  0.000000009341935 ]
    mass: 6.940000
    reduced_to: 9
  - symbol: Li # 13
    coordinates: [  0.332140812052668,  0.332140835578592,  0.500000009341935 ]
    mass: 6.940000
    reduced_to: 9
  - symbol: Li # 14
    coordinates: [  0.832140812052668,  0.332140835578592,  0.500000009341935 ]
    mass: 6.940000
    reduced_to: 9
  - symbol: Li # 15
    coordinates: [  0.332140812052668,  0.832140835578592,  0.500000009341935 ]
    mass: 6.940000
    reduced_to: 9
  - symbol: Li # 16
    coordinates: [  0.832140812052668,  0.832140835578592,  0.500000009341935 ]
    mass: 6.940000
    reduced_to: 9
  - symbol: Sn # 17
    coordinates: [  0.000000006097953,  0.499999976933284,  0.499999985525196 ]
    mass: 118.710000
    reduced_to: 17
  - symbol: Sn # 18
    coordinates: [  0.500000006097953,  0.499999976933284,  0.499999985525196 ]
    mass: 118.710000
    reduced_to: 17
  - symbol: Sn # 19
    coordinates: [  0.000000006097953,  0.999999976933283,  0.499999985525196 ]
    mass: 118.710000
    reduced_to: 17
  - symbol: Sn # 20
    coordinates: [  0.500000006097953,  0.999999976933283,  0.499999985525196 ]
    mass: 118.710000
    reduced_to: 17
  - symbol: Sn # 21
    coordinates: [  0.000000006097953,  0.499999976933284,  0.999999985525196 ]
    mass: 118.710000
    reduced_to: 17
  - symbol: Sn # 22
    coordinates: [  0.500000006097953,  0.499999976933284,  0.999999985525196 ]
    mass: 118.710000
    reduced_to: 17
  - symbol: Sn # 23
    coordinates: [  0.000000006097953,  0.999999976933283,  0.999999985525196 ]
    mass: 118.710000
    reduced_to: 17
  - symbol: Sn # 24
    coordinates: [  0.500000006097953,  0.999999976933283,  0.999999985525196 ]
    mass: 118.710000
    reduced_to: 17

displacements:
- atom:    1
  displacement:
    [   0.0100000000000000,  0.0000000000000000,  0.0000000000000000 ]
  forces:
  - [  -0.0003622509539127,  0.0118955280631781, -0.0020408574491739 ]
  - [   0.0250645894557238,  0.0153567064553499, -0.0000018574937712 ]
  - [   0.0256536416709423,  0.0150612648576498,  0.0000383425503969 ]
  - [   0.0261096358299255,  0.0159352906048298,  0.0000669625587761 ]
  - [   0.0253188405185938,  0.0154055235907435,  0.0003743339329958 ]
  - [   0.0253235027194023,  0.0159353986382484, -0.0001790560781956 ]
  - [   0.0249363537877798,  0.0143759250640869, -0.0019311308860779 ]
  - [   0.0250923503190279,  0.0155177507549524, -0.0001446327660233 ]
  - [  -0.0206887871026993, -0.0127258878201246,  0.0001879923511297 ]
  - [  -0.0221562366932631, -0.0171343330293894,  0.0001018282491714 ]
  - [  -0.0255278795957565, -0.0154227837920189, -0.0000118801981444 ]
  - [  -0.0275297611951828, -0.0152993742376566, -0.0002871784963645 ]
  - [  -0.0251012761145830, -0.0148685658350587, -0.0010475178714842 ]
  - [  -0.0254984423518181, -0.0155045613646507, -0.0004636794328690 ]
  - [  -0.0252946056425571, -0.0152280908077955, -0.0001295073307119 ]
  - [  -0.0239288657903671, -0.0154686961323023,  0.0019939830526710 ]
  - [  -0.0006266292184591, -0.0000862851738930,  0.0002479739487171 ]
  - [   0.0039668176323175, -0.0008981861174107,  0.0030278991907835 ]
  - [   0.0003982146736234,  0.0012832316569984, -0.0011533831711859 ]
  - [  -0.0000437231501564, -0.0000621094368398, -0.0000936784781516 ]
  - [   0.0003569833934307, -0.0003991406410933, -0.0003532180562615 ]
  - [  -0.0008270628750324,  0.0000008270144463, -0.0000960906036198 ]
  - [   0.0090741906315088,  0.0051916558295488,  0.0000107691157609 ]
  - [   0.0062903678044677, -0.0028610839508474,  0.0018836159724742 ]
- atom:    1
  displacement:
    [  -0.0100000000000000,  0.0000000000000000,  0.0000000000000000 ]
  forces:
  - [   0.0508218891918659,  0.0193581394851208,  0.0019647153094411 ]
  - [   0.0253713484853506,  0.0155905708670616,  0.0000033283431549 ]
  - [   0.0247871838510036,  0.0158912278711796, -0.0000387444160879 ]
  - [   0.0243255514651537,  0.0150196328759193, -0.0000693374313414 ]
  - [   0.0251250043511391,  0.0155456727370620, -0.0003769602626562 ]
  - [   0.0251182820647955,  0.0150152156129479,  0.0001737102866173 ]
  - [   0.0255044605582952,  0.0165768098086119,  0.0019298885017633 ]
  - [   0.0253471955657005,  0.0154296569526196,  0.0001434702426195 ]
  - [  -0.0296720266342163, -0.0181493889540434, -0.0001859359908849 ]
  - [  -0.0283413045108318, -0.0137662645429373, -0.0000971767585725 ]
  - [  -0.0249079316854477, -0.0155127551406622,  0.0000097433076007 ]
  - [  -0.0229100082069635, -0.0156620126217604,  0.0002900650433730 ]
  - [  -0.0253295432776213, -0.0160751454532146,  0.0010495454771444 ]
  - [  -0.0249460879713297, -0.0154409101232886,  0.0004575643688440 ]
  - [  -0.0251492168754339, -0.0157202668488026,  0.0001353428524453 ]
  - [  -0.0265062432736158, -0.0154815493151546, -0.0020190314389765 ]
  - [   0.0006488431245089,  0.0000867545604706, -0.0002649873495102 ]
  - [  -0.0039330199360847,  0.0008888691663742, -0.0029508844017982 ]
  - [  -0.0004192726919428, -0.0012975889258087,  0.0011682382319123 ]
  - [   0.0000443521421403,  0.0000614034943283,  0.0000914956908673 ]
  - [  -0.0003565922379494,  0.0003448575735092,  0.0003601326607168 ]
  - [   0.0008282009512186,  0.0000020377337933,  0.0000971583649516 ]
  - [  -0.0093748699873686, -0.0054162424057722, -0.0000125652877614 ]
  - [  -0.0060762176290154,  0.0027112793177366, -0.0018587738741189 ]
- atom:   17
  displacement:
    [   0.0100000000000000,  0.0000000000000000,  0.0000000000000000 ]
  forces:
  - [   0.0245672464370728,  0.0153841953724623,  0.0002661165781319 ]
  - [   0.0291567482054234,  0.0149650461971760,  0.0040643187239766 ]
  - [   0.0256407298147678,  0.0163933262228966, -0.0012417295947671 ]
  - [   0.0251773037016392,  0.0154118966311216, -0.0000928728841245 ]
  - [   0.0255743525922298,  0.0156837478280067, -0.0003948882222176 ]
  - [   0.0243888497352600,  0.0154732838273048, -0.0000972822308540 ]
  - [   0.0345920473337173,  0.0208975318819284,  0.0000098957680166 ]
  - [   0.0312942489981651,  0.0122293680906296,  0.0008440862875432 ]
  - [  -0.0252636559307575, -0.0155352223664522, -0.0000919611193240 ]
  - [  -0.0248222127556801, -0.0145811978727579, -0.0012165643274784 ]
  - [  -0.0212581083178520, -0.0159837938845158,  0.0041714655235410 ]
  - [  -0.0258418079465628, -0.0155584979802370,  0.0002467290032655 ]
  - [  -0.0189294535666704, -0.0188954658806324,  0.0008412864990532 ]
  - [  -0.0161449797451496, -0.0102908778935671,  0.0000138655304909 ]
  - [  -0.0260431692004204, -0.0154744163155556, -0.0000956000512815 ]
  - [  -0.0248602349311113, -0.0153342625126243, -0.0003802578721661 ]
  - [  -0.0393399372696877,  0.0007966309785843, -0.0005853716284037 ]
  - [   0.0012570209801197,  0.0001323297619820,  0.0004928093403578 ]
  - [   0.0004704932216555,  0.0005315337330103, -0.0004842790076509 ]
  - [   0.0003413195954636, -0.0000475987326354,  0.0000308115268126 ]
  - [   0.0001615844666958,  0.0007938034832478, -0.0001410096883774 ]
  - [   0.0002063084393740, -0.0011738352477551,  0.0011634421534836 ]
  - [  -0.0017025412525982, -0.0059930682182312, -0.0075900228694081 ]
  - [   0.0013778491411358,  0.0001755510747898,  0.0002670326502994 ]

force_constants:
  format: "full"
  shape: [ 24, 24 ]
  elements:
  - # (1, 1)
    - [     2.559207332215884,     0.373124590297001,     0.200283974777853 ]
    - [     0.373124590297001,     2.179994431806430,    -0.326435770332626 ]
    - [     0.200283974777853,    -0.326435770332626,     1.698649726419776 ]
  - # (1, 2)
    - [     0.015336854727759,     0.011685256885367,     0.000257212935758 ]
    - [     0.011685257600880,    -0.070345474798380,     0.004181985560439 ]
    - [     0.000257206820299,     0.004181995270612,     0.007837136755597 ]
  - # (1, 3)
    - [    -0.043322281687213,     0.041493403063289,    -0.003844758979244 ]
    - [     0.041493401107685,    -0.011686335378224,     0.001665231806208 ]
    - [    -0.003844765934705,     0.001665243206261,     0.007837136365794 ]
  - # (1, 4)
    - [    -0.089203892390945,    -0.045788898143713,    -0.006809663933564 ]
    - [    -0.045788898143713,    -0.042667842177332,     0.011098830101093 ]
    - [    -0.006809663933564,     0.011098830101093,    -0.005992076483906 ]
  - # (1, 5)
    - [    -0.009690952003135,     0.006995781676898,    -0.037563878667548 ]
    - [     0.006995781149693,     0.011426317674939,     0.002915447472346 ]
    - [    -0.037563874585536,     0.002915460213326,    -0.048906839474509 ]
  - # (1, 6)
    - [    -0.010260707089425,    -0.046015160618195,     0.017643650976420 ]
    - [    -0.046015163057147,     0.036505298896768,    -0.028756769131450 ]
    - [     0.017643652480179,    -0.028756768208822,     0.042501736310374 ]
  - # (1, 7)
    - [     0.028405664938319,     0.110038244857637,     0.193056292479689 ]
    - [     0.110038242418685,    -0.083428065519508,    -0.314655655220768 ]
    - [     0.193056293983448,    -0.314655654298140,    -0.394247804937590 ]
  - # (1, 8)
    - [     0.012743189511335,    -0.004404321766816,     0.014418172604695 ]
    - [    -0.004404322050068,    -0.011007826583690,     0.034808919772206 ]
    - [     0.014418166891827,     0.034808924144230,    -0.048906834540084 ]
  - # (1, 9)
    - [    -0.449161651648901,    -0.271181080368187,    -0.018691091737394 ]
    - [    -0.271181080368186,    -0.173555656128101,     0.030463925941109 ]
    - [    -0.018691091737394,     0.030463925941109,     0.016382953694778 ]
  - # (1, 10)
    - [    -0.309251562559788,     0.168396602495694,    -0.009943387466665 ]
    - [     0.168396608365503,    -0.052287002294799,     0.003827875694661 ]
    - [    -0.009943404691062,     0.003827893203222,     0.012527482752674 ]
  - # (1, 11)
    - [     0.030996697860550,    -0.004503474113871,     0.001092036555441 ]
    - [    -0.004503476069476,    -0.392535279740471,     0.010598623727044 ]
    - [     0.001092029599981,     0.010598635127097,     0.012527483800270 ]
  - # (1, 12)
    - [     0.230987975258610,    -0.018137927708113,     0.028867510442218 ]
    - [    -0.018137927708113,     0.249421873345833,    -0.047050140283376 ]
    - [     0.028867510442218,    -0.047050140283376,     0.224169032281707 ]
  - # (1, 13)
    - [    -0.011413802708363,    -0.060334708059255,     0.104858669430738 ]
    - [    -0.060334716767339,    -0.097878746074606,     0.171788446418164 ]
    - [     0.104858659338875,     0.171788420974875,    -0.239718493178080 ]
  - # (1, 14)
    - [     0.027618044665336,     0.003176556591860,     0.046067522535735 ]
    - [     0.003176554152908,     0.024389666702493,    -0.075083833488628 ]
    - [     0.046067524039494,    -0.075083832566000,    -0.035617547642936 ]
  - # (1, 15)
    - [     0.007269764768708,    -0.024614810292132,     0.013247843157386 ]
    - [    -0.024614812731084,     0.032286226585173,    -0.021592193865586 ]
    - [     0.013247844661145,    -0.021592192942958,     0.030692500059715 ]
  - # (1, 16)
    - [    -0.128868242204963,    -0.000649221317515,    -0.200652587598187 ]
    - [    -0.000649220282121,     0.019575708846072,    -0.015657308444385 ]
    - [    -0.200652557859684,    -0.015657296093699,    -0.239718522180489 ]
  - # (1, 17)
    - [     0.063750670609677,     0.008686571222540,    -0.025647731877570 ]
    - [     0.008686569448192,     0.054922364353665,     0.041802343892485 ]
    - [    -0.025647730334073,     0.041802341518381,     0.081916166063593 ]
  - # (1, 18)
    - [    -0.394962855515738,     0.089325185605713,    -0.298961880495395 ]
    - [     0.050923855226078,    -0.020738726273110,     0.021743356516884 ]
    - [    -0.411839275537926,     0.071370741323259,    -0.479022419858630 ]
  - # (1, 19)
    - [    -0.040898354575642,    -0.128997091709796,     0.116052397417555 ]
    - [    -0.090595751022688,    -0.374803257268741,     0.276374429062024 ]
    - [     0.122945686576311,     0.399486847393207,    -0.479022389803095 ]
  - # (1, 20)
    - [     0.004360512333603,     0.006173981005762,     0.009247640828980 ]
    - [     0.006173979236144,    -0.001914201287584,    -0.015072398902939 ]
    - [     0.009247642373954,    -0.015072401267758,    -0.017356929857191 ]
  - # (1, 21)
    - [    -0.035704534322933,     0.037250914520634,     0.035628452346635 ]
    - [    -0.017458813202291,    -0.778765563531502,     0.191740683264834 ]
    - [     0.038790224408448,     0.074797473572062,    -0.080253984301457 ]
  - # (1, 22)
    - [     0.082739403882443,     0.000061598488231,     0.009650718735880 ]
    - [     0.000061596887109,     0.082676809765290,    -0.015729362134882 ]
    - [     0.009650720176430,    -0.015729364563282,     0.070476326196952 ]
  - # (1, 23)
    - [    -0.922403383588970,    -0.530360813847716,    -0.001179981361562 ]
    - [    -0.530360815451923,    -0.383388569468510,     0.001923154227027 ]
    - [    -0.001179979924721,     0.001923151797459,    -0.056499828529551 ]
  - # (1, 24)
    - [    -0.618273890476207,     0.278578821234683,    -0.187077133107851 ]
    - [     0.333288560964274,    -0.196196151452104,     0.055100178348115 ]
    - [    -0.084254792031796,    -0.000696463229534,    -0.080254009913711 ]
  - # (2, 1)
    - [     0.015336854727759,     0.011685257600880,     0.000257206820299 ]
    - [     0.011685256885367,    -0.070345474798380,     0.004181995270612 ]
    - [     0.000257212935758,     0.004181985560439,     0.007837136755597 ]
  - # (2, 2)
    - [     2.559207170781944,     0.373124676665644,     0.200284161778383 ]
    - [     0.373124676665644,     2.179994583182647,    -0.326435657450289 ]
    - [     0.200284161778383,    -0.326435657450289,     1.698649736252742 ]
  - # (2, 3)
    - [    -0.089203889414754,    -0.045788898574374,    -0.006809670360632 ]
    - [    -0.045788893633183,    -0.042667856733098,     0.011098823777665 ]
    - [    -0.006809664996459,     0.011098827068841,    -0.005992067356185 ]
  - # (2, 4)
    - [    -0.043322275321649,     0.041493400615035,    -0.003844770517712 ]
    - [     0.041493399899522,    -0.011686337477169,     0.001665243005334 ]
    - [    -0.003844762436266,     0.001665230090868,     0.007837136941613 ]
  - # (2, 5)
    - [    -0.010260703289405,    -0.046015159264168,     0.017643646347912 ]
    - [    -0.046015156944547,     0.036505280403667,    -0.028756782700789 ]
    - [     0.017643643898297,    -0.028756774028405,     0.042501753065983 ]
  - # (2, 6)
    - [    -0.009690948207609,     0.006995775935093,    -0.037563884024320 ]
    - [     0.006995776269029,     0.011426325594876,     0.002915466516208 ]
    - [    -0.037563876283274,     0.002915453238819,    -0.048906862564505 ]
  - # (2, 7)
    - [     0.012743196430133,    -0.004404327231825,     0.014418162546406 ]
    - [    -0.004404326897889,    -0.011007819992630,     0.034808933396563 ]
    - [     0.014418168184113,     0.034808923547334,    -0.048906855336194 ]
  - # (2, 8)
    - [     0.028405661119561,     0.110038279866934,     0.193056334387458 ]
    - [     0.110038250845422,    -0.083428125869221,    -0.314655723997947 ]
    - [     0.193056238158146,    -0.314655643875021,    -0.394247740604619 ]
  - # (2, 9)
    - [    -0.309251562559788,     0.168396608365503,    -0.009943404691062 ]
    - [     0.168396602495694,    -0.052287002294799,     0.003827893203222 ]
    - [    -0.009943387466665,     0.003827875694661,     0.012527482752674 ]
  - # (2, 10)
    - [    -0.449161624356326,    -0.271181089902547,    -0.018691122988986 ]
    - [    -0.271181089902547,    -0.173555693478416,     0.030463904915325 ]
    - [    -0.018691122988986,     0.030463904915325,     0.016382963527718 ]
  - # (2, 11)
    - [     0.230987967950088,    -0.018137919717243,     0.028867519517271 ]
    - [    -0.018137921166584,     0.249421869074781,    -0.047050137095512 ]
    - [     0.028867517421133,    -0.047050138381593,     0.224169041409429 ]
  - # (2, 12)
    - [     0.030996700647807,    -0.004503476743292,     0.001092027136612 ]
    - [    -0.004503482613101,    -0.392535297332838,     0.010598622067242 ]
    - [     0.001092033298407,     0.010598622589229,     0.012527484854700 ]
  - # (2, 13)
    - [     0.027618047730308,     0.003176561158955,     0.046067521607214 ]
    - [     0.003176563260614,     0.024389640043533,    -0.075083858679820 ]
    - [     0.046067509975216,    -0.075083834739906,    -0.035617521986424 ]
  - # (2, 14)
    - [    -0.011413800010194,    -0.060334721129239,     0.104858673788814 ]
    - [    -0.060334713933071,    -0.097878738451881,     0.171788455319294 ]
    - [     0.104858672530486,     0.171788452235830,    -0.239718548326566 ]
  - # (2, 15)
    - [    -0.128868239889008,    -0.000649235055876,    -0.200652604431292 ]
    - [    -0.000649227859708,     0.019575714189519,    -0.015657294399513 ]
    - [    -0.200652593782635,    -0.015657316889756,    -0.239718586347815 ]
  - # (2, 16)
    - [     0.007269763651109,    -0.024614806580052,     0.013247842981580 ]
    - [    -0.024614804018975,     0.032286209605059,    -0.021592204540402 ]
    - [     0.013247842904581,    -0.021592197644742,     0.030692518321944 ]
  - # (2, 17)
    - [    -0.394962847537274,     0.089325172505161,    -0.298961908186296 ]
    - [     0.050923851016326,    -0.020738730439363,     0.021743374512899 ]
    - [    -0.411839277072888,     0.071370701603872,    -0.479022426060309 ]
  - # (2, 18)
    - [     0.063750667303204,     0.008686572639470,    -0.025647728402411 ]
    - [     0.008686578560198,     0.054922358012369,     0.041802336207866 ]
    - [    -0.025647726089855,     0.041802349298499,     0.081916165174616 ]
  - # (2, 19)
    - [     0.004360512895725,     0.006173982135776,     0.009247641504519 ]
    - [     0.006173984703348,    -0.001914211497475,    -0.015072408305259 ]
    - [     0.009247639565369,    -0.015072397814871,    -0.017356930746169 ]
  - # (2, 20)
    - [    -0.040898345630497,    -0.128997094599241,     0.116052379847651 ]
    - [    -0.090595745021332,    -0.374803270846037,     0.276374430562180 ]
    - [     0.122945670703794,     0.399486831042101,    -0.479022362157576 ]
  - # (2, 21)
    - [     0.082739402757676,     0.000061606516567,     0.009650718857628 ]
    - [     0.000061605048948,     0.082676788401326,    -0.015729371411544 ]
    - [     0.009650717623153,    -0.015729372912939,     0.070476358997627 ]
  - # (2, 22)
    - [    -0.035704528439843,     0.037250867273179,     0.035628456806809 ]
    - [    -0.017458827921476,    -0.778765460413382,     0.191740660837299 ]
    - [     0.038790235673711,     0.074797542039330,    -0.080254040943132 ]
  - # (2, 23)
    - [    -0.618273845495991,     0.278578793911355,    -0.187077154175931 ]
    - [     0.333288468513825,    -0.196196089402339,     0.055100197528186 ]
    - [    -0.084254807479907,    -0.000696457999619,    -0.080254059673767 ]
  - # (2, 24)
    - [    -0.922403335842974,    -0.530360826391694,    -0.001180046149914 ]
    - [    -0.530360824251523,    -0.383388659480750,     0.001923101461178 ]
    - [    -0.001180046053612,     0.001923092811993,    -0.056499775951384 ]
  - # (3, 1)
    - [    -0.043322281687213,     0.041493401107685,    -0.003844765934705 ]
    - [     0.041493403063289,    -0.011686335378224,     0.001665243206261 ]
    - [    -0.003844758979244,     0.001665231806208,     0.007837136365794 ]
  - # (3, 2)
    - [    -0.089203889414754,    -0.045788893633183,    -0.006809664996459 ]
    - [    -0.045788898574374,    -0.042667856733098,     0.011098827068841 ]
    - [    -0.006809670360632,     0.011098823777665,    -0.005992067356185 ]
  - # (3, 3)
    - [     2.559207330744416,     0.373124595379336,     0.200283977034236 ]
    - [     0.373124595379336,     2.179994423220159,    -0.326435770799664 ]
    - [     0.200283977034236,    -0.326435770799664,     1.698649736252719 ]
  - # (3, 4)
    - [     0.015336852889269,     0.011685258606073,     0.000257209075632 ]
    - [     0.011685260561678,    -0.070345468693269,     0.004181999265335 ]
    - [     0.000257216031092,     0.004181987865281,     0.007837137331417 ]
  - # (3, 5)
    - [     0.028405661233053,     0.110038248828733,     0.193056297960633 ]
    - [     0.110038281768279,    -0.083428125982713,    -0.314655746347543 ]
    - [     0.193056274741953,    -0.314655621429108,    -0.394247740604619 ]
  - # (3, 6)
    - [     0.012743192466478,    -0.004404326550955,     0.014418165887317 ]
    - [    -0.004404327034302,    -0.011007817823368,     0.034808935621941 ]
    - [     0.014418174346536,     0.034808925144516,    -0.048906857630079 ]
  - # (3, 7)
    - [    -0.009690949338103,     0.006995778660142,    -0.037563880526890 ]
    - [     0.006995778176794,     0.011426328519765,     0.002915468486479 ]
    - [    -0.037563872067670,     0.002915458009054,    -0.048906860270619 ]
  - # (3, 8)
    - [    -0.010260709787810,    -0.046015155601344,     0.017643654714789 ]
    - [    -0.046015154002931,     0.036505286902072,    -0.028756777567310 ]
    - [     0.017643652709841,    -0.028756768622101,     0.042501753065984 ]
  - # (3, 9)
    - [     0.030996697860550,    -0.004503476069476,     0.001092029599981 ]
    - [    -0.004503474113871,    -0.392535279740471,     0.010598635127097 ]
    - [     0.001092036555441,     0.010598623727044,     0.012527483800270 ]
  - # (3, 10)
    - [     0.230987967950088,    -0.018137921166584,     0.028867517421133 ]
    - [    -0.018137919717243,     0.249421869074781,    -0.047050138381593 ]
    - [     0.028867519517271,    -0.047050137095512,     0.224169041409429 ]
  - # (3, 11)
    - [    -0.449161653120368,    -0.271181075285851,    -0.018691089481011 ]
    - [    -0.271181075285851,    -0.173555664714371,     0.030463925474071 ]
    - [    -0.018691089481011,     0.030463925474071,     0.016382963527723 ]
  - # (3, 12)
    - [    -0.309251579674363,     0.168396609979560,    -0.009943391932255 ]
    - [     0.168396611935165,    -0.052286999985334,     0.003827889482901 ]
    - [    -0.009943384976794,     0.003827878082848,     0.012527483807105 ]
  - # (3, 13)
    - [     0.007269763343017,    -0.024614805821433,     0.013247843477929 ]
    - [    -0.024614804464475,     0.032286209913151,    -0.021592204235867 ]
    - [     0.013247841982080,    -0.021592198210741,     0.030692518321944 ]
  - # (3, 14)
    - [    -0.128868239555049,    -0.000649225651481,    -0.200652594685329 ]
    - [    -0.000649226134829,     0.019575716517051,    -0.015657293209303 ]
    - [    -0.200652586226110,    -0.015657303686728,    -0.239718577328979 ]
  - # (3, 15)
    - [    -0.011413806423358,    -0.060334719764918,     0.104858679265028 ]
    - [    -0.060334720248265,    -0.097878734700207,     0.171788463468616 ]
    - [     0.104858687724248,     0.171788452991191,    -0.239718557345400 ]
  - # (3, 16)
    - [     0.027618039443653,     0.003176565512532,     0.046067532472081 ]
    - [     0.003176567328907,     0.024389648330189,    -0.075083852013703 ]
    - [     0.046067521015977,    -0.075083827965871,    -0.035617521986422 ]
  - # (3, 17)
    - [    -0.040898353119655,    -0.128997090581358,     0.116052388893589 ]
    - [    -0.090595752130190,    -0.374803259134697,     0.276374447465083 ]
    - [     0.122945693375949,     0.399486828870025,    -0.479022379081173 ]
  - # (3, 18)
    - [     0.004360509406149,     0.006173983004055,     0.009247644653868 ]
    - [     0.006173987381585,    -0.001914208007898,    -0.015072406372982 ]
    - [     0.009247644786160,    -0.015072394611666,    -0.017356930746168 ]
  - # (3, 19)
    - [     0.063750667682223,     0.008686573220832,    -0.025647728052682 ]
    - [     0.008686577593633,     0.054922357633351,     0.041802336422442 ]
    - [    -0.025647727921867,     0.041802348174472,     0.081916165174616 ]
  - # (3, 20)
    - [    -0.394962854059751,     0.089325186734151,    -0.298961889019361 ]
    - [     0.050923854118577,    -0.020738728139067,     0.021743374919943 ]
    - [    -0.411839268738288,     0.071370722800076,    -0.479022409136708 ]
  - # (3, 21)
    - [    -0.922403364336032,    -0.530360785981763,    -0.001179985247879 ]
    - [    -0.530360835703469,    -0.383388630987689,     0.001923138827488 ]
    - [    -0.001180039773807,     0.001923096664958,    -0.056499775951380 ]
  - # (3, 22)
    - [    -0.618273869605542,     0.278578802033956,    -0.187077130079909 ]
    - [     0.333288484553893,    -0.196196086798558,     0.055100189901483 ]
    - [    -0.084254803291296,    -0.000696451729571,    -0.080254055780124 ]
  - # (3, 23)
    - [    -0.035704535319816,     0.037250866980705,     0.035628460923658 ]
    - [    -0.017458820296484,    -0.778765432027635,     0.191740685773951 ]
    - [     0.038790243160989,     0.074797542932998,    -0.080254044836772 ]
  - # (3, 24)
    - [     0.082739402422918,     0.000061606060587,     0.009650718576604 ]
    - [     0.000061605845148,     0.082676788736084,    -0.015729371583966 ]
    - [     0.009650718834947,    -0.015729372169446,     0.070476358997627 ]
  - # (4, 1)
    - [    -0.089203892390945,    -0.045788898143713,    -0.006809663933564 ]
    - [    -0.045788898143713,    -0.042667842177332,     0.011098830101093 ]
    - [    -0.006809663933564,     0.011098830101093,    -0.005992076483906 ]
  - # (4, 2)
    - [    -0.043322275321649,     0.041493399899522,    -0.003844762436266 ]
    - [     0.041493400615035,    -0.011686337477169,     0.001665230090868 ]
    - [    -0.003844770517712,     0.001665243005334,     0.007837136941613 ]
  - # (4, 3)
    - [     0.015336852889269,     0.011685260561678,     0.000257216031092 ]
    - [     0.011685258606073,    -0.070345468693269,     0.004181987865281 ]
    - [     0.000257209075632,     0.004181999265335,     0.007837137331417 ]
  - # (4, 4)
    - [     2.559207334057277,     0.373124590925851,     0.200283974306536 ]
    - [     0.373124590925851,     2.179994433008710,    -0.326435769564444 ]
    - [     0.200283974306536,    -0.326435769564444,     1.698649727830220 ]
  - # (4, 5)