# Thermal properties / unit cell (natom)

unit:
  temperature:   K
  free_energy:   kJ/mol
  entropy:       J/K/mol
  heat_capacity: J/K/mol

natom: 3    
cutoff_frequency: 0.00000
num_modes: 318240
num_integrated_modes: 316883

zero_point_energy:      11.5990456

thermal_properties:
- temperature:         0.0000000
  free_energy:        11.5990456
  entropy:             0.0000000
  heat_capacity:       0.0000000
  energy:             11.5990456

- temperature:        10.0000000
  free_energy:        11.5980938
  entropy:             0.3031184
  heat_capacity:       0.7404804
  energy:             11.6011249

- temperature:        20.0000000
  free_energy:        11.5888302
  entropy:             1.8172532
  heat_capacity:       4.6095477
  energy:             11.6251753

- temperature:        30.0000000
  free_energy:        11.5571193
  entropy:             4.6893927
  heat_capacity:       9.8873494
  energy:             11.6978011

- temperature:        40.0000000
  free_energy:        11.4929974
  entropy:             8.1907493
  heat_capacity:      14.5500656
  energy:             11.8206273

- temperature:        50.0000000
  free_energy:        11.3926970
  entropy:            11.8841959
  heat_capacity:      18.6482888
  energy:             11.9869068

- temperature:        60.0000000
  free_energy:        11.2551458
  entropy:            15.6310539
  heat_capacity:      22.5621457
  energy:             12.1930090

- temperature:        70.0000000
  free_energy:        11.0799995
  entropy:            19.4013184
  heat_capacity:      26.4526728
  energy:             12.4380917

- temperature:        80.0000000
  free_energy:        10.8670713
  entropy:            23.1858551
  heat_capacity:      30.3044630
  energy:             12.7219397

- temperature:        90.0000000
  free_energy:        10.6162753
  entropy:            26.9723499
  heat_capacity:      34.0381987
  energy:             13.0437867

- temperature:       100.0000000
  free_energy:        10.3276745
  entropy:            30.7437360
  heat_capacity:      37.5761753
  energy:             13.4020481

- temperature:       110.0000000
  free_energy:        10.0015128
  entropy:            34.4815094
  heat_capacity:      40.8656332
  energy:             13.7944788

- temperature:       120.0000000
  free_energy:         9.6382136
  entropy:            38.1685828
  heat_capacity:      43.8806415
  energy:             14.2184436

- temperature:       130.0000000
  free_energy:         9.2383577
  entropy:            41.7907780
  heat_capacity:      46.6162917
  energy:             14.6711589

- temperature:       140.0000000
  free_energy:         8.8026508
  entropy:            45.3372637
  heat_capacity:      49.0816987
  energy:             15.1498677

- temperature:       150.0000000
  free_energy:         8.3318906
  entropy:            48.8003911
  heat_capacity:      51.2941659
  energy:             15.6519493

- temperature:       160.0000000
  free_energy:         7.8269374
  entropy:            52.1752585
  heat_capacity:      53.2749980
  energy:             16.1749788

- temperature:       170.0000000
  free_energy:         7.2886887
  entropy:            55.4591980
  heat_capacity:      55.0467604
  energy:             16.7167524

- temperature:       180.0000000
  free_energy:         6.7180598
  entropy:            58.6512852
  heat_capacity:      56.6316167
  energy:             17.2752911

- temperature:       190.0000000
  free_energy:         6.1159680
  entropy:            61.7519125
  heat_capacity:      58.0504041
  energy:             17.8488314

- temperature:       200.0000000
  free_energy:         5.4833219
  entropy:            64.7624373
  heat_capacity:      59.3221870
  energy:             18.4358094

- temperature:       210.0000000
  free_energy:         4.8210129
  entropy:            67.6849028
  heat_capacity:      60.4641027
  energy:             19.0348424

- temperature:       220.0000000
  free_energy:         4.1299091
  entropy:            70.5218202
  heat_capacity:      61.4913795
  energy:             19.6447095

- temperature:       230.0000000
  free_energy:         3.4108523
  entropy:            73.2760027
  heat_capacity:      62.4174480
  energy:             20.2643329

- temperature:       240.0000000
  free_energy:         2.6646549
  entropy:            75.9504406
  heat_capacity:      63.2540970
  energy:             20.8927606

- temperature:       250.0000000
  free_energy:         1.8920990
  entropy:            78.5482091
  heat_capacity:      64.0116443
  energy:             21.5291513

- temperature:       260.0000000
  free_energy:         1.0939359
  entropy:            81.0724002
  heat_capacity:      64.6991080
  energy:             22.1727600

- temperature:       270.0000000
  free_energy:         0.2708860
  entropy:            83.5260746
  heat_capacity:      65.3243659
  energy:             22.8229262

- temperature:       280.0000000
  free_energy:        -0.5763605
  entropy:            85.9122268
  heat_capacity:      65.8943023
  energy:             23.4790630

- temperature:       290.0000000
  free_energy:        -1.4471431
  entropy:            88.2337624
  heat_capacity:      66.4149378
  energy:             24.1406480

- temperature:       300.0000000
  free_energy:        -2.3408297
  entropy:            90.4934826
  heat_capacity:      66.8915444
  energy:             24.8072151

- temperature:       310.0000000
  free_energy:        -3.2568157
  entropy:            92.6940750
  heat_capacity:      67.3287455
  energy:             25.4783476

- temperature:       320.0000000
  free_energy:        -4.1945227
  entropy:            94.8381091
  heat_capacity:      67.7306025
  energy:             26.1536722

- temperature:       330.0000000
  free_energy:        -5.1533975
  entropy:            96.9280342
  heat_capacity:      68.1006900
  energy:             26.8328538

- temperature:       340.0000000
  free_energy:        -6.1329108
  entropy:            98.9661808
  heat_capacity:      68.4421600
  energy:             27.5155907

- temperature:       350.0000000
  free_energy:        -7.1325559
  entropy:           100.9547624
  heat_capacity:      68.7577978
  energy:             28.2016109

- temperature:       360.0000000
  free_energy:        -8.1518478
  entropy:           102.8958795
  heat_capacity:      69.0500696
  energy:             28.8906688

- temperature:       370.0000000
  free_energy:        -9.1903219
  entropy:           104.7915235
  heat_capacity:      69.3211635
  energy:             29.5825417

- temperature:       380.0000000
  free_energy:       -10.2475330
  entropy:           106.6435815
  heat_capacity:      69.5730251
  energy:             30.2770280

- temperature:       390.0000000
  free_energy:       -11.3230543
  entropy:           108.4538415
  heat_capacity:      69.8073877
  energy:             30.9739439

- temperature:       400.0000000
  free_energy:       -12.4164762
  entropy:           110.2239969
  heat_capacity:      70.0257988
  energy:             31.6731226

- temperature:       410.0000000
  free_energy:       -13.5274059
  entropy:           111.9556518
  heat_capacity:      70.2296428
  energy:             32.3744114

- temperature:       420.0000000
  free_energy:       -14.6554660
  entropy:           113.6503261
  heat_capacity:      70.4201605
  energy:             33.0776710

- temperature:       430.0000000
  free_energy:       -15.8002939
  entropy:           115.3094600
  heat_capacity:      70.5984662
  energy:             33.7827739

- temperature:       440.0000000
  free_energy:       -16.9615413
  entropy:           116.9344187
  heat_capacity:      70.7655625
  energy:             34.4896030

- temperature:       450.0000000
  free_energy:       -18.1388727
  entropy:           118.5264967
  heat_capacity:      70.9223534
  energy:             35.1980508

- temperature:       460.0000000
  free_energy:       -19.3319657
  entropy:           120.0869220
  heat_capacity:      71.0696548
  energy:             35.9080184

- temperature:       470.0000000
  free_energy:       -20.5405095
  entropy:           121.6168601
  heat_capacity:      71.2082054
  energy:             36.6194147

- temperature:       480.0000000
  free_energy:       -21.7642050
  entropy:           123.1174178
  heat_capacity:      71.3386742
  energy:             37.3321556

- temperature:       490.0000000
  free_energy:       -23.0027635
  entropy:           124.5896465
  heat_capacity:      71.4616685
  energy:             38.0461633

- temperature:       500.0000000
  free_energy:       -24.2559068
  entropy:           126.0345454
  heat_capacity:      71.5777408
  energy:             38.7613659

- temperature:       510.0000000
  free_energy:       -25.5233665
  entropy:           127.4530650
  heat_capacity:      71.6873938
  energy:             39.4776967

- temperature:       520.0000000
  free_energy:       -26.8048832
  entropy:           128.8461098
  heat_capacity:      71.7910863
  energy:             40.1950939

- temperature:       530.0000000
  free_energy:       -28.1002066
  entropy:           130.2145407
  heat_capacity:      71.8892372
  energy:             40.9135000

- temperature:       540.0000000
  free_energy:       -29.4090947
  entropy:           131.5591781
  heat_capacity:      71.9822298
  energy:             41.6328615

- temperature:       550.0000000
  free_energy:       -30.7313135
  entropy:           132.8808037
  heat_capacity:      72.0704153
  energy:             42.3531286

- temperature:       560.0000000
  free_energy:       -32.0666366
  entropy:           134.1801632
  heat_capacity:      72.1541157
  energy:             43.0742548

- temperature:       570.0000000
  free_energy:       -33.4148449
  entropy:           135.4579681
  heat_capacity:      72.2336268
  energy:             43.7961969

- temperature:       580.0000000
  free_energy:       -34.7757263
  entropy:           136.7148976
  heat_capacity:      72.3092209
  energy:             44.5189143

- temperature:       590.0000000
  free_energy:       -36.1490754
  entropy:           137.9516009
  heat_capacity:      72.3811484
  energy:             45.2423691

- temperature:       600.0000000
  free_energy:       -37.5346930
  entropy:           139.1686980
  heat_capacity:      72.4496405
  energy:             45.9665258

- temperature:       610.0000000
  free_energy:       -38.9323860
  entropy:           140.3667823
  heat_capacity:      72.5149105
  energy:             46.6913512

- temperature:       620.0000000
  free_energy:       -40.3419672
  entropy:           141.5464211
  heat_capacity:      72.5771557
  energy:             47.4168139

- temperature:       630.0000000
  free_energy:       -41.7632548
  entropy:           142.7081581
  heat_capacity:      72.6365584
  energy:             48.1428848

- temperature:       640.0000000
  free_energy:       -43.1960724
  entropy:           143.8525134
  heat_capacity:      72.6932877
  energy:             48.8695362

- temperature:       650.0000000
  free_energy:       -44.6402488
  entropy:           144.9799861
  heat_capacity:      72.7475003
  energy:             49.5967422

- temperature:       660.0000000
  free_energy:       -46.0956174
  entropy:           146.0910542
  heat_capacity:      72.7993419
  energy:             50.3244783

- temperature:       670.0000000
  free_energy:       -47.5620167
  entropy:           147.1861765
  heat_capacity:      72.8489476
  energy:             51.0527216

- temperature:       680.0000000
  free_energy:       -49.0392893
  entropy:           148.2657934
  heat_capacity:      72.8964432
  energy:             51.7814502

- temperature:       690.0000000
  free_energy:       -50.5272823
  entropy:           149.3303276
  heat_capacity:      72.9419459
  energy:             52.5106438

- temperature:       700.0000000
  free_energy:       -52.0258469
  entropy:           150.3801854
  heat_capacity:      72.9855649
  energy:             53.2402829

- temperature:       710.0000000
  free_energy:       -53.5348384
  entropy:           151.4157571
  heat_capacity:      73.0274020
  energy:             53.9703491

- temperature:       720.0000000
  free_energy:       -55.0541157
  entropy:           152.4374180
  heat_capacity:      73.0675523
  energy:             54.7008253

- temperature:       730.0000000
  free_energy:       -56.5835416
  entropy:           153.4455294
  heat_capacity:      73.1061048
  energy:             55.4316949

- temperature:       740.0000000
  free_energy:       -58.1229823
  entropy:           154.4404386
  heat_capacity:      73.1431427
  energy:             56.1629423

- temperature:       750.0000000
  free_energy:       -59.6723075
  entropy:           155.4224805
  heat_capacity:      73.1787436
  energy:             56.8945529

- temperature:       760.0000000
  free_energy:       -61.2313901
  entropy:           156.3919773
  heat_capacity:      73.2129806
  energy:             57.6265127

- temperature:       770.0000000
  free_energy:       -62.8001062
  entropy:           157.3492395
  heat_capacity:      73.2459222
  energy:             58.3588082

- temperature:       780.0000000
  free_energy:       -64.3783351
  entropy:           158.2945668
  heat_capacity:      73.2776324
  energy:             59.0914270

- temperature:       790.0000000
  free_energy:       -65.9659587
  entropy:           159.2282477
  heat_capacity:      73.3081715
  energy:             59.8243570

- temperature:       800.0000000
  free_energy:       -67.5628621
  entropy:           160.1505611
  heat_capacity:      73.3375962
  energy:             60.5575867

- temperature:       810.0000000
  free_energy:       -69.1689330
  entropy:           161.0617757
  heat_capacity:      73.3659599
  energy:             61.2911054

- temperature:       820.0000000
  free_energy:       -70.7840615
  entropy:           161.9621513
  heat_capacity:      73.3933126
  energy:             62.0249025

- temperature:       830.0000000
  free_energy:       -72.4081407
  entropy:           162.8519387
  heat_capacity:      73.4197016
  energy:             62.7589684

- temperature:       840.0000000
  free_energy:       -74.0410658
  entropy:           163.7313801
  heat_capacity:      73.4451714
  energy:             63.4932935

- temperature:       850.0000000
  free_energy:       -75.6827346
  entropy:           164.6007100
  heat_capacity:      73.4697641
  energy:             64.2278689

- temperature:       860.0000000
  free_energy:       -77.3330471
  entropy:           165.4601547
  heat_capacity:      73.4935192
  energy:             64.9626860

- temperature:       870.0000000
  free_energy:       -78.9919055
  entropy:           166.3099334
  heat_capacity:      73.5164742
  energy:             65.6977366

- temperature:       880.0000000
  free_energy:       -80.6592142
  entropy:           167.1502581
  heat_capacity:      73.5386645
  energy:             66.4330129

- temperature:       890.0000000
  free_energy:       -82.3348798
  entropy:           167.9813340
  heat_capacity:      73.5601236
  energy:             67.1685075

- temperature:       900.0000000
  free_energy:       -84.0188107
  entropy:           168.8033598
  heat_capacity:      73.5808830
  energy:             67.9042131

- temperature:       910.0000000
  free_energy:       -85.7109175
  entropy:           169.6165279
  heat_capacity:      73.6009728
  energy:             68.6401229

- temperature:       920.0000000
  free_energy:       -87.4111124
  entropy:           170.4210248
  heat_capacity:      73.6204213
  energy:             69.3762304

- temperature:       930.0000000
  free_energy:       -89.1193097
  entropy:           171.2170311
  heat_capacity:      73.6392554
  energy:             70.1125293

- temperature:       940.0000000
  free_energy:       -90.8354253
  entropy:           172.0047222
  heat_capacity:      73.6575006
  energy:             70.8490135

- temperature:       950.0000000
  free_energy:       -92.5593770
  entropy:           172.7842678
  heat_capacity:      73.6751812
  energy:             71.5856774

- temperature:       960.0000000
  free_energy:       -94.2910840
  entropy:           173.5558327
  heat_capacity:      73.6923201
  energy:             72.3225154

- temperature:       970.0000000
  free_energy:       -96.0304675
  entropy:           174.3195769
  heat_capacity:      73.7089392
  energy:             73.0595221

- temperature:       980.0000000
  free_energy:       -97.7774500
  entropy:           175.0756556
  heat_capacity:      73.7250591
  energy:             73.7966925

- temperature:       990.0000000
  free_energy:       -99.5319556
  entropy:           175.8242195
  heat_capacity:      73.7406996
  energy:             74.5340217

- temperature:      1000.0000000
  free_energy:      -101.2939099
  entropy:           176.5654148
  heat_capacity:      73.7558795
  energy:             75.2715049
