14
Lattice="4.135704433605378 0.0001525420503718045 -0.8193887629642372 -0.15026987527200172 6.000111252437651 -0.756823785043514 -0.03119231809186942 0.18053792668904728 10.690915081425947" Properties=species:S:1:pos:R:3:forces:R:3 structure_index=0 total_energy=-41.420501708984375 stress="0.0008502393029630184 -0.0008448941516689956 0.00030078270356170833 -0.0008449031156487763 -0.0009663294185884297 -0.004890046548098326 0.00030076023540459573 -0.004889997188001871 0.0020669689401984215" pbc="T T T"
Li       2.67536035       4.76396315       6.45966172      -0.00431234       0.01095924      -0.02250265
Li       0.99580807       0.57472008       8.82601964      -0.00221093      -0.01262909      -0.01497390
Li       2.08719472       4.25979515       3.48632954      -0.00129644       0.02236988      -0.00634923
Li       3.83725233       5.53402697       1.46748458      -0.00528282      -0.01286770      -0.02240444
Li       1.50983824       3.80407375       0.56770478       0.00100131      -0.01740387       0.00350071
Li       2.73828708       1.74524818       6.77739723       0.00275536      -0.01657395       0.01225662
Li       1.59440301       0.87883718       0.99349769      -0.00307576       0.00928065      -0.01637022
Ga       3.28269766       2.25458039       9.51694145       0.00711043       0.02176396       0.04068158
Ga       0.93331659       3.43309276       8.50928478       0.00749054      -0.00472986       0.03596111
Ga       2.14324158       1.17757491       3.76620237      -0.00221163      -0.00926052      -0.01138109
Sn       3.23085859       5.31146925       9.25660848      -0.00386337      -0.02109428      -0.01566866
Sn       0.36753070       3.06360623       5.65923561       0.00299918       0.01757272       0.01010551
Sn       0.27490730       6.03307156       5.18942011      -0.00294468       0.02748050      -0.01739535
Sn       3.89783592       2.53711800       1.77247430       0.00384114      -0.01486769       0.02454000
10
Lattice="4.480467995765924 -0.005404339493790149 0.7385526596689452 2.1798307829017176 3.923849692925222 0.7352426590253136 0.15713976109734357 0.08838345380306203 12.928701853635479" Properties=species:S:1:pos:R:3:forces:R:3 structure_index=1 total_energy=-30.89788818359375 stress="-0.013193460181355476 0.00024826606386341155 -0.0006127157830633223 0.000248085823841393 -0.01436835527420044 -0.00016973019228316844 -0.0006131315021775663 -0.00016986372065730393 -0.007862295024096966" pbc="T T T"
Li       2.32013342       1.59907555       8.18257999      -0.00081230       0.00059945       0.00900197
Li       1.76684740       1.27010291      11.51412895      -0.00087516      -0.00099672       0.00253709
Li       0.71246647       0.65236814       3.99405186       0.00399729       0.00207701      -0.02537500
Ga       4.34794221       0.15056511       9.83577161      -0.00766511      -0.00279379       0.04871061
Ga       0.29101051       0.40360223       6.53228958      -0.00061637      -0.00063400       0.00463144
Ga       1.15513788       0.91392133       1.32838383       0.00697164       0.00430964      -0.04467943
Sn       4.87726935       3.09922553       6.62484792      -0.00936081      -0.00703927       0.05085448
Sn       4.15756019       2.67877854      10.98164757       0.00002345       0.00077478       0.00535785
Sn       3.19379401       2.11707574       2.92618649       0.00639399       0.00569005      -0.02861066
Sn       5.95169211       3.72737039      14.02197761       0.00194336      -0.00198715      -0.02242830
4
Lattice="4.033746719360351 0.0 2.32464599609375 1.3477206989153943 3.802651086709967 2.325891256332398 0.0 0.0 4.654884338378906" Properties=species:S:1:pos:R:3:forces:R:3 structure_index=2 total_energy=-11.746576309204102 stress="0.06341341137886047 0.0009246509871445596 -0.017944645136594772 0.0009247152484022081 0.07521003484725952 -0.012051406316459179 -0.017944488674402237 -0.012051482684910297 0.05946893244981766" pbc="T T T"
Li       4.85952916       3.32064877       6.61768437      -0.00112042      -0.00364341      -0.00186848
Li       2.16868800       1.41866287       1.96343923      -0.00079670      -0.00165854       0.00298758
Ga       3.51329153       2.36918024       4.28998046       0.00146161       0.00015647       0.00145205
Sn       0.82310344       0.46651360       4.29353061       0.00045552       0.00514548      -0.00257115
4
Lattice="4.056226861283514 -0.0004414431092265259 0.00011227079429172727 0.0004842673378627094 4.056177493088096 0.0004338764312715197 -0.00013163616759955205 -0.0005111435111395052 4.4484544738445" Properties=species:S:1:pos:R:3:forces:R:3 structure_index=3 total_energy=-11.800256729125977 stress="0.03632383793592453 0.00039895117515698075 -2.9825007004546933e-05 0.0003990551340393722 0.03606824949383736 -0.00011612354137469083 -2.9884131436119787e-05 -0.00011608556815190241 0.101517453789711" pbc="T T T"
Li       1.08057676       2.37420428       2.59085253      -0.00006341      -0.00014661       0.00014267
Li       3.10814914       0.34576226       2.59067031       0.00052646       0.00041629       0.00017980
Ga       1.08028620       0.34623786       0.36680978       0.00107342       0.00101599      -0.00059731
Sn       3.10900539       2.37440857       0.36660827      -0.00153648      -0.00128566       0.00027485
10
Lattice="3.0125219735714555 0.00021947017105646333 0.00023657257620463562 -0.0006063057206712232 7.907573871112968 -0.0002045316229998704 -0.0006272056162599714 0.0002801905844351785 7.905794556279092" Properties=species:S:1:pos:R:3:forces:R:3 structure_index=4 total_energy=-28.908756256103516 stress="-0.018793104216456413 9.240833605872467e-06 -1.0080514584842604e-05 9.267277164326515e-06 -0.017747649922966957 -4.933832315145992e-05 -1.0078595551021863e-05 -4.931296643917449e-05 -0.018106693401932716" pbc="T T T"
Li       2.64572372       6.39631434       5.21995736      -0.00016296       0.02241257       0.02294080
Li       2.64562802       2.44010504       6.35194165       0.00039793       0.02463205      -0.02328186
Li       2.64608527       7.52614924       1.26603734      -0.00046779      -0.02273444       0.02480740
Li       2.64589622       3.57479851       2.39934437       0.00022706      -0.02481553      -0.02352919
Ga       1.13999116       1.95921203       0.78646437       0.00004741      -0.01575729      -0.01529557
Ga       1.13947878       5.91338345       2.88041902       0.00034234      -0.01485687       0.01706968
Ga       1.13959188       4.05564612       4.73895206      -0.00017454       0.01597447      -0.01483127
Ga       1.13979512       0.10134342       6.83430138      -0.00005159       0.01579507       0.01487449
Sn       1.13984819       1.03120363       3.80954250       0.00002317      -0.00085584      -0.00123126
Sn       1.13942378       4.98344609       7.76254155      -0.00018104       0.00020577      -0.00152323
20
Lattice="6.071873247961903 0.07169944532899822 -0.00584829260485109 -1.5272217417412552 6.802714907526592 -2.3796599743393276 0.006356434969069044 -0.01959021770457529 9.565444010507575" Properties=species:S:1:pos:R:3:forces:R:3 structure_index=5 total_energy=-59.46546173095703 stress="0.0067604053765535355 -0.0004089313151780516 -0.0004949681460857391 -0.00040895541314966977 0.019886016845703125 -0.000816584040876478 -0.0004949425347149372 -0.0008167093619704247 0.00414640735834837" pbc="T T T"
Li       4.05332019       4.01423622       0.61162629      -0.02198877      -0.01442698       0.01204146
Li       1.07469185       2.51710945       3.00907425       0.01797952      -0.03318647       0.00180748
Li       2.56612841       6.46361880       5.40367242       0.01134156       0.03408065      -0.00177823
Li       5.59755017       1.14659729       0.60413563       0.00736962      -0.00275397      -0.00587234
Li       2.57593135       1.17756868       5.40877735       0.01453608       0.01447254      -0.00072499
Li       1.05310605       2.48858663       7.80812559       0.01760661      -0.01002604      -0.00359051
Li       2.57416325       1.18696476       0.61848975       0.01044082       0.01770345       0.00387597
Li       2.55756843       6.53881462       0.64008952      -0.00554257       0.02595476       0.00619777
Li       5.58759033       1.20329749       5.41151663       0.00634735      -0.00074585       0.00675442
Ga       4.09435578       3.95323022       5.42413473      -0.00667373       0.00276055      -0.00519977
Ga       1.05432706       3.92313495       5.41801071       0.00424452      -0.01085998       0.00036588
Ga      -0.53877601       4.99484018      -1.71936724      -0.01783536       0.00373825      -0.00744601
Ga       1.05728259       3.92225769       0.62106515      -0.00604998      -0.01704569       0.00141326
Ga      -0.52310344       5.00524259       2.98492715      -0.03023664      -0.00687523       0.00611798
Sn      -0.44155505       6.51640921       5.42311941       0.02056921       0.01699315       0.00077334
Sn       2.44555949       5.08439332       2.99934370      -0.02987850       0.00532135       0.00587264
Sn       4.17065872       2.40597970       2.99838038       0.02695903      -0.03932761      -0.00276120
Sn       4.15036509       2.35796996       7.81415086       0.01524817      -0.02502497      -0.00181382
Sn       2.42656481       5.09689992      -1.74225529      -0.03244486       0.01390232      -0.01130491
Sn      -0.48325583       6.59220615       0.63083005      -0.00199210       0.02534579      -0.00472839
8
Lattice="4.065886769551156 -0.0017407568127224898 -0.924103336075697 -0.23930069785273286 4.297211282725911 -1.060706712893543 0.015154382122866263 0.05860952171454792 9.449674599406197" Properties=species:S:1:pos:R:3:forces:R:3 structure_index=6 total_energy=-24.8912296295166 stress="0.006555595900863409 -0.0019344327738508582 -0.00041228337795473635 -0.0019344291649758816 0.04086284339427948 -0.007785607594996691 -0.00041224731830880046 -0.007785612717270851 0.005357207264751196" pbc="T T T"
Li       2.49606794       1.39430903      -0.47123954       0.00060797       0.00024973       0.00815673
Li       2.83957489       4.06973585       1.04138757       0.00025550      -0.00012295       0.00010468
Li       3.42259710       2.44827952       3.61473181      -0.00046742       0.00024281      -0.00876539
Ga      -0.02789007       0.87646836       7.24005772      -0.00026015      -0.00175127      -0.00765840
Ga       1.89581905       3.02722635       6.27671123       0.00075790       0.00165963       0.00868441
Sn       0.29031827       3.48303065      -0.77202964      -0.00435973      -0.00784793      -0.01582994
Sn       1.56273634       0.36178665       4.83950008       0.00345310       0.00659498       0.01533983
Sn       0.92635451       1.92184690       2.03377867       0.00001284       0.00097501      -0.00003192
10
Lattice="4.0770099699145685 0.0014822489364005528 -0.9451951904415611 -0.0019322235337580855 4.03807241298007 -0.0013880388150398963 0.3033584238585565 0.0030680772330899946 10.565784571817048" Properties=species:S:1:pos:R:3:forces:R:3 structure_index=7 total_energy=-28.073490142822266 stress="-0.014737376011908054 -0.0012829606421291828 0.016256405040621758 -0.0012830104678869247 -0.03397760167717934 -0.0014931992627680302 0.01625649258494377 -0.0014932716730982065 0.03571890667080879" pbc="T T T"
Li       2.45627589       1.24828888      -0.45239512       0.00273833       0.00083075       0.01504351
Li       0.91884705       1.24840156       2.18372406      -0.00277401       0.00032043      -0.01478459
Li       2.94754953       3.26820134       1.67075891      -0.00092372      -0.00001049      -0.00269379
Li       1.86096958       1.25024666       6.24369667      -0.00214089      -0.00045187      -0.01138902
Li       2.31960557       3.26982479       8.22158126       0.00201314       0.00009132       0.00673460
Li       3.89943547       3.26979285       5.77175357       0.00068434       0.00024657       0.00538423
Ga       1.38592909       3.26841936       4.19938423      -0.00047398      -0.00059676       0.00176006
Ga       0.26747637       1.25010850       8.63120329      -0.00050204       0.00004416      -0.00098686
Sn       3.42847629       1.24990993       3.74255440      -0.00307288       0.00059430      -0.01905605
Sn       0.43329406       3.26700481       0.09145449       0.00445171      -0.00106843       0.01998794
10
Lattice="3.3001551092128754 -0.00013650186454909947 0.00019639806723368842 0.0001737195320229814 3.3001712885199925 0.00026233515806978614 -0.0008680647995517213 -0.0019687065749537306 17.908825660311827" Properties=species:S:1:pos:R:3:forces:R:3 structure_index=8 total_energy=-30.93812370300293 stress="-0.01796860434114933 0.00012805181904695928 1.0870212463487405e-05 0.00012811589112970978 -0.017810925841331482 2.2291142158792354e-05 1.0936721082543954e-05 2.2431906472775154e-05 -0.0313212014734745" pbc="T T T"
Li       1.11526409       0.52896436       4.18244963      -0.00064342      -0.00099916      -0.01059251
Li       1.11461268       0.52774871       7.94983260       0.00029756       0.00006934      -0.01665650
Li       1.11477200       0.52656723      11.68025892       0.00031679       0.00073272       0.00911240
Li       1.11569549       0.52892190       0.46088827      -0.00042883      -0.00107990      -0.04297479
Li       1.11494800       0.52604121      15.38726820      -0.00002114       0.00083029       0.04836321
Ga       2.76507624       2.17640881      16.88318466      -0.00011592       0.00026644      -0.00742933
Sn       2.76508630       2.17660903      13.55424002      -0.00007439      -0.00041339      -0.00804447
Sn       2.76476041       2.17799661       6.08129016       0.00043599       0.00053494      -0.01262440
Sn       2.76516758       2.17843174       2.29432146       0.00074603       0.00074259       0.02722653
Sn       2.76522141       2.17762560       9.79862891      -0.00051265      -0.00068386       0.01361989
4
Lattice="4.279822553387139 0.0004809127254366437 -0.0008787707232097584 -0.0014556400632906171 4.280534039272386 -0.004168914568339582 0.0005248764178490988 0.0025015164972944357 4.358044573961761" Properties=species:S:1:pos:R:3:forces:R:3 structure_index=9 total_energy=-12.158652305603027 stress="0.04508476331830025 -0.002897472819313407 -0.001796361873857677 -0.002897311467677355 0.050235964357852936 -0.008515150286257267 -0.0017962994752451777 -0.008515223860740662 0.05841050297021866" pbc="T T T"
Li       3.40751529       3.72773951       0.40460193      -0.00134773      -0.00136583      -0.00026030
Ga       3.40780520       1.58814096       2.58525438      -0.00025871       0.00067219       0.00162087
Ga       1.26728366       3.72850644       2.58429880       0.00031372      -0.00122792      -0.00009154
Sn       1.26748682       1.58643112       0.40744568       0.00129273       0.00192155      -0.00126902
10
Lattice="3.013368481722615 0.006388551557995551 -0.006841946228355826 -0.016866828889204957 7.902201778268603 -0.0042120799823326316 0.017921816120886565 0.004701374165705526 7.908182189700907" Properties=species:S:1:pos:R:3:forces:R:3 structure_index=10 total_energy=-28.908987045288086 stress="-0.0008386410190723836 0.000134458823595196 -2.3111912014428526e-05 0.00013445565127767622 -0.03936370089650154 0.0002617744030430913 -2.280130320286844e-05 0.000261873472481966 -0.03745036572217941" pbc="T T T"
Li       1.19790664       3.50482359       4.61943167       0.00006778       0.02522217       0.02536288
Li       1.19670923       0.68469800       1.79549629       0.00106460      -0.02690210      -0.02565097
Li       1.18761076       4.63235772       0.65898206      -0.00195529      -0.02740199       0.03058125
Li       1.19216289       7.45646556       5.74536515      -0.00027165       0.02647897      -0.02474101
Ga       2.70536078       5.12416076       6.22882192      -0.00054968       0.00331307       0.00204872
Ga       2.69988111       3.02502539       2.27695675       0.00106937      -0.00210044       0.00326883
Ga       2.70838237       1.17077019       4.13068476      -0.00023985       0.00441200      -0.00454712
Ga       2.68702156       6.97377193       0.17397712       0.00019891      -0.00251335      -0.00386189
Sn       2.71276674       2.09897966       7.15758444       0.00066231      -0.00075557      -0.00059619
Sn       2.69602370       6.04761128       3.20087670      -0.00004645       0.00024725      -0.00186454
8
Lattice="5.582551312796608 -0.18186532702648947 -2.431555216050392 -3.1029630300930844 5.087644314472916 -1.1789976058903766 -0.1042290114057394 0.1328342599661463 6.0729683317325724" Properties=species:S:1:pos:R:3:forces:R:3 structure_index=11 total_energy=-25.099178314208984 stress="0.018573584035038948 3.083825868088752e-05 0.003861447097733617 3.08901617245283e-05 -0.007535851560533047 -0.024202318862080574 0.0038614014629274607 -0.024202223867177963 0.012346922419965267" pbc="T T T"
Li       3.99104157       2.32388109      -1.54867262      -0.00975776       0.01745802      -0.02492578
Li       2.55373677       4.66119857       1.29615057       0.01072736      -0.01544633       0.02555133
Ga       2.39496846       4.94854579      -1.73617547      -0.00253829       0.00526422       0.00173058
Ga       1.48976890       2.52691927       2.91880893      -0.03671450      -0.03119086      -0.00551254
Ga      -0.53747367       4.67055281      -0.71870677       0.04284252       0.01507405      -0.00661567
Sn       4.20388689       1.95864688       1.40933323       0.00238520      -0.00048646      -0.00144724
Sn      -0.33441302       4.91115356       2.32377265      -0.00468301       0.00427082       0.00505086
Sn       1.27087607       2.29413775      -0.11224981      -0.00226152       0.00505656       0.00616845
12
Lattice="4.108886065419816 0.00016791976902261313 -0.0001828136408673592 -0.0002682438744475296 6.5944332268648775 -0.0008094803112059606 0.0004691541772442677 0.000443346229786668 8.949198470159182" Properties=species:S:1:pos:R:3:forces:R:3 structure_index=12 total_energy=-36.50630569458008 stress="0.009613352827727795 -8.671871682963683e-07 -3.2513748010387644e-05 -8.288813546641904e-07 0.016566719859838486 -2.132385088771116e-05 -3.2499825465492904e-05 -2.1286314222379588e-05 0.015521002002060413" pbc="T T T"
Li       1.37106206       1.97255159       3.32396403      -0.00067433      -0.00036759      -0.01173554
Li       1.37040644       5.27051513       6.24653232       0.00016974      -0.00086152       0.00269773
Li       3.42513603       0.35824848       7.75535964       0.00022378      -0.02002887      -0.00323383
Li       1.37061298       5.26958802       3.25430729      -0.00029936       0.00072797       0.03282221
Li       3.42498209       3.58559595       7.75573970       0.00025679       0.02218974      -0.00402601
Ga       1.37058250       1.97305806       6.27516964       0.00010744      -0.00066526      -0.02011501
Ga       3.42496858       0.30842845       1.83075339       0.00032053       0.00750621      -0.00243987
Ga       3.42487324       3.63629257       1.83206761       0.00024095      -0.00739310      -0.00760236
Sn       1.37046409       1.97194069       0.32813248      -0.00047967       0.00127423      -0.01671770
Sn       3.42515572       0.31816693       4.80454861       0.00014259       0.00455966       0.00737173
Sn       3.42501279       3.62804440       4.80416369       0.00016950      -0.00472319       0.00917686
Sn       1.37023968       5.26970069       0.30599161      -0.00017796      -0.00221832       0.01380178
12
Lattice="4.327399732058181 -0.0009093705362052224 1.2990728397060125 1.511606220965966 7.052446656365776 2.8291200596927135 -0.06143681686277981 -0.05217766808638658 8.059769706923406" Properties=species:S:1:pos:R:3:forces:R:3 structure_index=13 total_energy=-35.98055648803711 stress="0.019621826708316803 0.00019532536680344492 0.0031056986190378666 0.00019546547264326364 0.029202958568930626 -0.0005747435498051345 0.0031057612504810095 -0.0005746807437390089 0.010249730199575424" pbc="T T T"
Li       2.69681535       1.85886361       7.40481236      -0.00530488      -0.00684363       0.01738070
Li       3.95836990       5.52444116       3.21056867       0.00353004      -0.01833625      -0.01336688
Li       4.72101468       6.54621483       8.52283528       0.00009045       0.00080955       0.00001949
Li       0.90762990       4.18643679       5.50774769       0.00487346       0.00606835      -0.01509569
Li       1.83253447       3.04781153       2.42780405      -0.00024288      -0.00011700       0.00114012
Li       4.03282019       0.57144465       2.94740166      -0.00288931       0.01792534       0.01262263
Ga       1.17999213       1.37219097       4.59972638       0.00007814      -0.00280958      -0.00130799
Ga       2.42306884       4.67206849       8.31813095      -0.00007439       0.00380082       0.00089451
Sn       4.44000039       3.01427811       9.45547789       0.00769447      -0.00991188      -0.02737248
Sn       3.49115861       3.02907007       4.75900825      -0.00783852       0.00964122       0.02695611
Sn       0.47296400       0.00892386       6.95473392      -0.00323978      -0.02650283       0.00985868
Sn       3.12984437       6.03574630       5.96352351       0.00332323       0.02627588      -0.01172920
5
Lattice="3.875273130619958 -0.0011610169739009522 -1.3224552240480012 -0.4499557355479145 3.8478478759804817 -1.3219601758629604 0.022548448387729878 0.02841332570447586 6.412175632233777" Properties=species:S:1:pos:R:3:forces:R:3 structure_index=14 total_energy=-14.046929359436035 stress="-0.027449831366539 -0.004560434725135565 -0.012169397436082363 -0.00456027127802372 -0.029628610238432884 -0.012308145873248577 -0.01216922514140606 -0.012307844124734402 -0.05535228177905083" pbc="T T T"
Li       2.41826801       1.54974710       4.66368623      -0.00082639      -0.00041211      -0.00171778
Ga       3.48698396       0.57118117       1.45040379      -0.00320327       0.00117306       0.00184152
Ga       1.32338147       2.49662220       1.45171601       0.00093748      -0.00097399       0.00009581
Ga       1.04502188       0.00657765       0.63603652      -0.00610158      -0.00900036      -0.02283127
Ga      -0.11127702       3.06199276       3.58833911       0.00919382       0.00921344       0.02261173
6
Lattice="3.799963641361151 0.00020554077479422928 -0.00014940312766196031 -0.00018045652607455264 3.799138042136395 -0.0003405851584617637 -0.000569058044565837 -0.00033754880297130757 8.633361198250558" Properties=species:S:1:pos:R:3:forces:R:3 structure_index=15 total_energy=-18.327516555786133 stress="0.04199378192424774 1.1972431821050122e-05 0.00017080667021218687 1.1942052879021503e-05 0.041792646050453186 8.169082866515964e-05 0.0001707970950519666 8.161061123246327e-05 0.01716122217476368" pbc="T T T"
Li       3.05687211       3.36203271       2.22466637       0.00098731      -0.00030331      -0.03712334
Li       1.15567693       1.46067446       3.87173053      -0.00094654      -0.00096170       0.03689815
Ga       3.05843900       3.36099804       8.08666654      -0.00204823      -0.00082814      -0.01704985
Ga       1.15331493       1.45716242       6.64297940       0.00225390       0.00267146       0.01716672
Sn       1.15898259       1.46272775       0.87370472      -0.00179300      -0.00135973       0.00971763
Sn       3.05357686       3.35817325       5.22257742       0.00154656       0.00078141      -0.00960931
11
Lattice="4.508100949418336 0.0004073627801397921 -0.001726581511899943 -0.00038851966577505904 4.508734832430122 -0.0020871124246252147 0.003600295864217699 0.004267491098721485 12.291449837109832" Properties=species:S:1:pos:R:3:forces:R:3 structure_index=16 total_energy=-35.84272766113281 stress="-0.00885632261633873 4.975046613253653e-05 2.56681796599878e-05 4.9772450438467786e-05 -0.009143099188804626 -7.540927617810667e-05 2.5600689696148038e-05 -7.531132723670453e-05 -0.011248352006077766" pbc="T T T"
Li       2.33958608       3.65635625       0.74439803       0.00061894      -0.00071154       0.00104152
Li       0.08820482       1.40286692       3.98962350       0.00012577      -0.00013073       0.00124319
Li       0.08936463       3.65787683      10.70365570      -0.00012323       0.00082421      -0.00819929
Li       0.08980277       3.65759290       6.32140412      -0.00070572       0.00045518       0.00928994
Ga       0.08667783       3.65637298       2.36844222       0.00016649       0.00009376      -0.00240664
Sn       2.34355779       3.65880026       8.56318390       0.00068240      -0.00022938       0.01836704
Sn       2.34350806       1.40450129      10.95910839      -0.00045844       0.00038911      -0.01452026
Sn       0.08611501       1.40133197       0.76613881       0.00061055      -0.00007626      -0.02023360
Sn       2.34157570       3.65737066       3.97091577      -0.00029170      -0.00030909       0.01697515
Sn       2.34337849       1.40370553       6.06782741       0.00005664      -0.00000514       0.01497871
Sn       0.09003488       1.40409837       8.46208478      -0.00068171      -0.00030012      -0.01653580
4
Lattice="4.056352336377168 0.0008970434848425329 -0.0008243179863481227 -0.00079408132030459 4.439095485163619 -0.0004199150631808255 0.0010267047553227417 0.00047326057771706145 4.056699536516808" Properties=species:S:1:pos:R:3:forces:R:3 structure_index=17 total_energy=-11.800297737121582 stress="0.0006655367324128747 0.0005835505435243249 0.0018904119497165084 0.0005836150958202779 -0.015468241646885872 0.0003052026149816811 0.0018905012402683496 0.00030521757435053587 0.002432634122669697" pbc="T T T"
Li       1.72655137       1.37765806       0.88668133       0.00021332      -0.00032677       0.00050139
Li       3.75539312       1.37847574       2.91490541      -0.00022764      -0.00057601      -0.00014351
Ga       1.72668945       3.59747912       2.91504494       0.00020377      -0.00001892       0.00057427
Sn       3.75439987       3.59742326       0.88649636      -0.00018944       0.00092170      -0.00093214
8
Lattice="4.1740290010310614 -0.00014506325734209516 -0.9709120614008093 -0.2566239778997561 4.322980193920903 -1.1039107866021214 -0.2975780557180434 -0.24070704555467826 8.179371675011666" Properties=species:S:1:pos:R:3:forces:R:3 structure_index=18 total_energy=-22.865402221679688 stress="0.035781167447566986 0.0001870758569566533 -0.013812106102705002 0.00018700594955589622 -0.04344066604971886 0.0014630148652940989 -0.013811991550028324 0.0014630693476647139 -0.017610736191272736" pbc="T T T"
Li       0.80379554       2.39147506       5.87396427       0.00020768       0.00011715       0.00123123
Li      -0.01779217       1.44156583       2.34063795       0.00075944       0.00043940       0.00502703
Li       3.60208774       3.11026705      -1.01123572       0.00407348       0.00456030       0.01595663
Li       1.92372092       3.58215596       1.22958393      -0.00181099      -0.00037080      -0.00608578
Li       2.47743003       1.91353177       3.61048302      -0.00407097      -0.00505420      -0.01676968
Ga       3.01904817       0.22982046       5.94109896       0.00040955       0.00040846       0.00023066
Sn       0.24791211       4.05904711       3.48369510      -0.00157383      -0.00281223      -0.00713513
Sn       1.65737445       0.96476076       0.08594823       0.00200565       0.00271196       0.00754502
12
Lattice="4.854720045597104 0.002236576239441592 -0.0008268667241891931 -2.42908865369181 4.203310263661336 6.541746120587109e-05 0.0034466148464205844 0.00021781716880591286 11.637158422901319" Properties=species:S:1:pos:R:3:forces:R:3 structure_index=19 total_energy=-35.71430969238281 stress="0.007472815457731485 0.00024103258328977972 0.00047186267329379916 0.00024103991745505482 0.007594734895974398 6.66511539293424e-07 0.00047179721877910197 7.500610195165791e-07 -0.020658787339925766" pbc="T T T"
Li      -0.62403001       2.43733936       4.76665365       0.00004591       0.00004791       0.01969296
Li      -0.62302335       2.43805158       7.69859396       0.00020005      -0.00004032      -0.00827651
Li       1.80103895       3.83977503       0.38175711       0.00021968       0.00051545       0.03726508
Li      -0.62604328       2.43710785       1.85329361       0.00074038      -0.00011867       0.01655114
Ga       1.80459665       3.84044667       9.10741925       0.00004996       0.00023993      -0.02139180
Ga       1.80587658       1.03762924       9.07314910      -0.00059285      -0.00027941      -0.00867471
Ga       1.80327227       3.84050235       6.38569729      -0.00008777      -0.00006574      -0.02251917
Ga       1.80322946       1.03651791       3.00064230      -0.00018879       0.00002151      -0.04968751
Ga       1.80233792       1.03717455       0.26590777      -0.00011366      -0.00039064       0.00565956
Sn       1.80227241       3.83944344       3.39540089      -0.00031360       0.00036256      -0.00372061
Sn      -0.62204831       2.43776643      10.63106150      -0.00011318      -0.00004982       0.01352686
Sn       1.80426596       1.03755266       6.12870948       0.00015389      -0.00024271       0.02157471
20
Lattice="4.426435036975064 0.0004604174228128732 -0.0008318863368350215 -2.213729579679476 8.02347249403411 1.341970491829463 0.0033540242514537356 0.11204696710158318 12.94362465356905" Properties=species:S:1:pos:R:3:forces:R:3 structure_index=20 total_energy=-65.5879135131836 stress="-0.004862026311457157 -6.38893325231038e-05 -3.754935823963024e-05 -6.38521887594834e-05 -0.016675015911459923 -0.0016534997848793864 -3.7541067285928875e-05 -0.0016534244641661644 0.00479081878438592" pbc="T T T"
Li       0.26913074       4.27937416       1.92917201       0.00029889      -0.03270460       0.03595920
Li       0.27116411       7.32458715      11.62457730       0.00050656       0.01304686       0.00294231