phonopy:
  version: "2.37.1"
  frequency_unit_conversion_factor: 15.633302
  symmetry_tolerance: 1.00000e-05

space_group:
  type: "P1"
  number: 1
  Hall_symbol: "P 1"

primitive_matrix:
- [  1.000000000000000, -0.000000000000000,  0.000000000000000 ]
- [  0.000000000000000,  1.000000000000000,  0.000000000000000 ]
- [  0.000000000000000,  0.000000000000000,  1.000000000000000 ]

supercell_matrix:
- [   3,   0,   0 ]
- [   0,   2,   0 ]
- [   0,   0,   2 ]

primitive_cell:
  lattice:
  - [     4.664296210907542,     0.000000000000000,     0.000000000000000 ] # a
  - [     2.328956641630360,     5.036858752359185,     0.000000000000000 ] # b
  - [     2.327198259834898,     0.327003263840203,     7.206405421097832 ] # c
  points:
  - symbol: Li # 1
    coordinates: [  0.855443034506288,  0.244007520589334,  0.673902069464610 ]
    mass: 6.940000
  - symbol: Li # 2
    coordinates: [  0.188155320359854,  0.909744431995749,  0.341900966829496 ]
    mass: 6.940000
  - symbol: Li # 3
    coordinates: [  0.420644774277139,  0.011202278891374,  0.773696670383818 ]
    mass: 6.940000
  - symbol: Li # 4
    coordinates: [  0.521285543033328,  0.577751706283064,  0.008658297592927 ]
    mass: 6.940000
  - symbol: Li # 5
    coordinates: [  0.087830284786079,  0.343241502520400,  0.108055570094309 ]
    mass: 6.940000
  - symbol: Li # 6
    coordinates: [  0.754412215117949,  0.676513750114789,  0.440679780142617 ]
    mass: 6.940000
  - symbol: Sn # 7
    coordinates: [  0.138093070112578,  0.627083524144622,  0.724610366481206 ]
    mass: 118.710000
  - symbol: Sn # 8
    coordinates: [  0.470736848766450,  0.293418221441590,  0.391463103510518 ]
    mass: 118.710000
  - symbol: Sn # 9
    coordinates: [  0.804689530613722,  0.960532622415732,  0.057523740250651 ]
    mass: 118.710000
  reciprocal_lattice: # without 2pi
  - [     0.214394617061730,    -0.099132374339829,    -0.064737152924655 ] # a*
  - [     0.000000000000000,     0.198536438912768,    -0.009008938537598 ] # b*
  - [     0.000000000000000,     0.000000000000000,     0.138765437352768 ] # c*

unit_cell:
  lattice:
  - [     4.664296210907542,     0.000000000000000,     0.000000000000000 ] # a
  - [     2.328956641630360,     5.036858752359185,     0.000000000000000 ] # b
  - [     2.327198259834898,     0.327003263840203,     7.206405421097832 ] # c
  points:
  - symbol: Li # 1
    coordinates: [  0.855443034506288,  0.244007520589334,  0.673902069464610 ]
    mass: 6.940000
    reduced_to: 1
  - symbol: Li # 2
    coordinates: [  0.188155320359854,  0.909744431995749,  0.341900966829496 ]
    mass: 6.940000
    reduced_to: 2
  - symbol: Li # 3
    coordinates: [  0.420644774277139,  0.011202278891374,  0.773696670383818 ]
    mass: 6.940000
    reduced_to: 3
  - symbol: Li # 4
    coordinates: [  0.521285543033328,  0.577751706283064,  0.008658297592927 ]
    mass: 6.940000
    reduced_to: 4
  - symbol: Li # 5
    coordinates: [  0.087830284786079,  0.343241502520400,  0.108055570094309 ]
    mass: 6.940000
    reduced_to: 5
  - symbol: Li # 6
    coordinates: [  0.754412215117949,  0.676513750114789,  0.440679780142617 ]
    mass: 6.940000
    reduced_to: 6
  - symbol: Sn # 7
    coordinates: [  0.138093070112578,  0.627083524144622,  0.724610366481206 ]
    mass: 118.710000
    reduced_to: 7
  - symbol: Sn # 8
    coordinates: [  0.470736848766450,  0.293418221441590,  0.391463103510518 ]
    mass: 118.710000
    reduced_to: 8
  - symbol: Sn # 9
    coordinates: [  0.804689530613722,  0.960532622415732,  0.057523740250651 ]
    mass: 118.710000
    reduced_to: 9

supercell:
  lattice:
  - [    13.992888632722627,     0.000000000000000,     0.000000000000000 ] # a
  - [     4.657913283260720,    10.073717504718370,     0.000000000000000 ] # b
  - [     4.654396519669796,     0.654006527680406,    14.412810842195665 ] # c
  points:
  - symbol: Li # 1
    coordinates: [  0.285147678168763,  0.122003760294667,  0.336951034732305 ]
    mass: 6.940000
    reduced_to: 1
  - symbol: Li # 2
    coordinates: [  0.618481011502096,  0.122003760294667,  0.336951034732305 ]
    mass: 6.940000
    reduced_to: 1
  - symbol: Li # 3
    coordinates: [  0.951814344835429,  0.122003760294667,  0.336951034732305 ]
    mass: 6.940000
    reduced_to: 1
  - symbol: Li # 4
    coordinates: [  0.285147678168763,  0.622003760294667,  0.336951034732305 ]
    mass: 6.940000
    reduced_to: 1
  - symbol: Li # 5
    coordinates: [  0.618481011502096,  0.622003760294667,  0.336951034732305 ]
    mass: 6.940000
    reduced_to: 1
  - symbol: Li # 6
    coordinates: [  0.951814344835429,  0.622003760294667,  0.336951034732305 ]
    mass: 6.940000
    reduced_to: 1
  - symbol: Li # 7
    coordinates: [  0.285147678168763,  0.122003760294667,  0.836951034732305 ]
    mass: 6.940000
    reduced_to: 1
  - symbol: Li # 8
    coordinates: [  0.618481011502096,  0.122003760294667,  0.836951034732305 ]
    mass: 6.940000
    reduced_to: 1
  - symbol: Li # 9
    coordinates: [  0.951814344835429,  0.122003760294667,  0.836951034732305 ]
    mass: 6.940000
    reduced_to: 1
  - symbol: Li # 10
    coordinates: [  0.285147678168763,  0.622003760294667,  0.836951034732305 ]
    mass: 6.940000
    reduced_to: 1
  - symbol: Li # 11
    coordinates: [  0.618481011502096,  0.622003760294667,  0.836951034732305 ]
    mass: 6.940000
    reduced_to: 1
  - symbol: Li # 12
    coordinates: [  0.951814344835429,  0.622003760294667,  0.836951034732305 ]
    mass: 6.940000
    reduced_to: 1
  - symbol: Li # 13
    coordinates: [  0.062718440119951,  0.454872215997874,  0.170950483414748 ]
    mass: 6.940000
    reduced_to: 13
  - symbol: Li # 14
    coordinates: [  0.396051773453285,  0.454872215997874,  0.170950483414748 ]
    mass: 6.940000
    reduced_to: 13
  - symbol: Li # 15
    coordinates: [  0.729385106786618,  0.454872215997874,  0.170950483414748 ]
    mass: 6.940000
    reduced_to: 13
  - symbol: Li # 16
    coordinates: [  0.062718440119951,  0.954872215997874,  0.170950483414748 ]
    mass: 6.940000
    reduced_to: 13
  - symbol: Li # 17
    coordinates: [  0.396051773453285,  0.954872215997874,  0.170950483414748 ]
    mass: 6.940000
    reduced_to: 13
  - symbol: Li # 18
    coordinates: [  0.729385106786618,  0.954872215997874,  0.170950483414748 ]
    mass: 6.940000
    reduced_to: 13
  - symbol: Li # 19
    coordinates: [  0.062718440119951,  0.454872215997874,  0.670950483414748 ]
    mass: 6.940000
    reduced_to: 13
  - symbol: Li # 20
    coordinates: [  0.396051773453285,  0.454872215997874,  0.670950483414748 ]
    mass: 6.940000
    reduced_to: 13
  - symbol: Li # 21
    coordinates: [  0.729385106786618,  0.454872215997874,  0.670950483414748 ]
    mass: 6.940000
    reduced_to: 13
  - symbol: Li # 22
    coordinates: [  0.062718440119951,  0.954872215997874,  0.670950483414748 ]
    mass: 6.940000
    reduced_to: 13
  - symbol: Li # 23
    coordinates: [  0.396051773453285,  0.954872215997874,  0.670950483414748 ]
    mass: 6.940000
    reduced_to: 13
  - symbol: Li # 24
    coordinates: [  0.729385106786618,  0.954872215997874,  0.670950483414748 ]
    mass: 6.940000
    reduced_to: 13
  - symbol: Li # 25
    coordinates: [  0.140214924759046,  0.005601139445687,  0.386848335191909 ]
    mass: 6.940000
    reduced_to: 25
  - symbol: Li # 26
    coordinates: [  0.473548258092380,  0.005601139445687,  0.386848335191909 ]
    mass: 6.940000
    reduced_to: 25
  - symbol: Li # 27
    coordinates: [  0.806881591425713,  0.005601139445687,  0.386848335191909 ]
    mass: 6.940000
    reduced_to: 25
  - symbol: Li # 28
    coordinates: [  0.140214924759046,  0.505601139445687,  0.386848335191909 ]
    mass: 6.940000
    reduced_to: 25
  - symbol: Li # 29
    coordinates: [  0.473548258092380,  0.505601139445687,  0.386848335191909 ]
    mass: 6.940000
    reduced_to: 25
  - symbol: Li # 30
    coordinates: [  0.806881591425713,  0.505601139445687,  0.386848335191909 ]
    mass: 6.940000
    reduced_to: 25
  - symbol: Li # 31
    coordinates: [  0.140214924759046,  0.005601139445687,  0.886848335191909 ]
    mass: 6.940000
    reduced_to: 25
  - symbol: Li # 32
    coordinates: [  0.473548258092380,  0.005601139445687,  0.886848335191909 ]
    mass: 6.940000
    reduced_to: 25
  - symbol: Li # 33
    coordinates: [  0.806881591425713,  0.005601139445687,  0.886848335191909 ]
    mass: 6.940000
    reduced_to: 25
  - symbol: Li # 34
    coordinates: [  0.140214924759046,  0.505601139445687,  0.886848335191909 ]
    mass: 6.940000
    reduced_to: 25
  - symbol: Li # 35
    coordinates: [  0.473548258092380,  0.505601139445687,  0.886848335191909 ]
    mass: 6.940000
    reduced_to: 25
  - symbol: Li # 36
    coordinates: [  0.806881591425713,  0.505601139445687,  0.886848335191909 ]
    mass: 6.940000
    reduced_to: 25
  - symbol: Li # 37
    coordinates: [  0.173761847677776,  0.288875853141532,  0.004329148796464 ]
    mass: 6.940000
    reduced_to: 37
  - symbol: Li # 38
    coordinates: [  0.507095181011109,  0.288875853141532,  0.004329148796464 ]
    mass: 6.940000
    reduced_to: 37
  - symbol: Li # 39
    coordinates: [  0.840428514344443,  0.288875853141532,  0.004329148796464 ]
    mass: 6.940000
    reduced_to: 37
  - symbol: Li # 40
    coordinates: [  0.173761847677776,  0.788875853141532,  0.004329148796464 ]
    mass: 6.940000
    reduced_to: 37
  - symbol: Li # 41
    coordinates: [  0.507095181011109,  0.788875853141532,  0.004329148796464 ]
    mass: 6.940000
    reduced_to: 37
  - symbol: Li # 42
    coordinates: [  0.840428514344443,  0.788875853141532,  0.004329148796464 ]
    mass: 6.940000
    reduced_to: 37
  - symbol: Li # 43
    coordinates: [  0.173761847677776,  0.288875853141532,  0.504329148796464 ]
    mass: 6.940000
    reduced_to: 37
  - symbol: Li # 44
    coordinates: [  0.507095181011109,  0.288875853141532,  0.504329148796464 ]
    mass: 6.940000
    reduced_to: 37
  - symbol: Li # 45
    coordinates: [  0.840428514344443,  0.288875853141532,  0.504329148796464 ]
    mass: 6.940000
    reduced_to: 37
  - symbol: Li # 46
    coordinates: [  0.173761847677776,  0.788875853141532,  0.504329148796464 ]
    mass: 6.940000
    reduced_to: 37
  - symbol: Li # 47
    coordinates: [  0.507095181011109,  0.788875853141532,  0.504329148796464 ]
    mass: 6.940000
    reduced_to: 37
  - symbol: Li # 48
    coordinates: [  0.840428514344443,  0.788875853141532,  0.504329148796464 ]
    mass: 6.940000
    reduced_to: 37
  - symbol: Li # 49
    coordinates: [  0.029276761595360,  0.171620751260200,  0.054027785047154 ]
    mass: 6.940000
    reduced_to: 49
  - symbol: Li # 50
    coordinates: [  0.362610094928693,  0.171620751260200,  0.054027785047154 ]
    mass: 6.940000
    reduced_to: 49
  - symbol: Li # 51
    coordinates: [  0.695943428262026,  0.171620751260200,  0.054027785047154 ]
    mass: 6.940000
    reduced_to: 49
  - symbol: Li # 52
    coordinates: [  0.029276761595360,  0.671620751260200,  0.054027785047154 ]
    mass: 6.940000
    reduced_to: 49
  - symbol: Li # 53
    coordinates: [  0.362610094928693,  0.671620751260200,  0.054027785047154 ]
    mass: 6.940000
    reduced_to: 49
  - symbol: Li # 54
    coordinates: [  0.695943428262026,  0.671620751260200,  0.054027785047154 ]
    mass: 6.940000
    reduced_to: 49
  - symbol: Li # 55
    coordinates: [  0.029276761595360,  0.171620751260200,  0.554027785047154 ]
    mass: 6.940000
    reduced_to: 49
  - symbol: Li # 56
    coordinates: [  0.362610094928693,  0.171620751260200,  0.554027785047154 ]
    mass: 6.940000
    reduced_to: 49
  - symbol: Li # 57
    coordinates: [  0.695943428262026,  0.171620751260200,  0.554027785047154 ]
    mass: 6.940000
    reduced_to: 49
  - symbol: Li # 58
    coordinates: [  0.029276761595360,  0.671620751260200,  0.554027785047154 ]
    mass: 6.940000
    reduced_to: 49
  - symbol: Li # 59
    coordinates: [  0.362610094928693,  0.671620751260200,  0.554027785047154 ]
    mass: 6.940000
    reduced_to: 49
  - symbol: Li # 60
    coordinates: [  0.695943428262026,  0.671620751260200,  0.554027785047154 ]
    mass: 6.940000
    reduced_to: 49
  - symbol: Li # 61
    coordinates: [  0.251470738372650,  0.338256875057395,  0.220339890071308 ]
    mass: 6.940000
    reduced_to: 61
  - symbol: Li # 62
    coordinates: [  0.584804071705983,  0.338256875057395,  0.220339890071308 ]
    mass: 6.940000
    reduced_to: 61
  - symbol: Li # 63
    coordinates: [  0.918137405039316,  0.338256875057395,  0.220339890071308 ]
    mass: 6.940000
    reduced_to: 61
  - symbol: Li # 64
    coordinates: [  0.251470738372650,  0.838256875057395,  0.220339890071308 ]
    mass: 6.940000
    reduced_to: 61
  - symbol: Li # 65
    coordinates: [  0.584804071705983,  0.838256875057395,  0.220339890071308 ]
    mass: 6.940000
    reduced_to: 61
  - symbol: Li # 66
    coordinates: [  0.918137405039316,  0.838256875057395,  0.220339890071308 ]
    mass: 6.940000
    reduced_to: 61
  - symbol: Li # 67
    coordinates: [  0.251470738372650,  0.338256875057395,  0.720339890071308 ]
    mass: 6.940000
    reduced_to: 61
  - symbol: Li # 68
    coordinates: [  0.584804071705983,  0.338256875057395,  0.720339890071308 ]
    mass: 6.940000
    reduced_to: 61
  - symbol: Li # 69
    coordinates: [  0.918137405039316,  0.338256875057395,  0.720339890071308 ]
    mass: 6.940000
    reduced_to: 61
  - symbol: Li # 70
    coordinates: [  0.251470738372650,  0.838256875057395,  0.720339890071308 ]
    mass: 6.940000
    reduced_to: 61
  - symbol: Li # 71
    coordinates: [  0.584804071705983,  0.838256875057395,  0.720339890071308 ]
    mass: 6.940000
    reduced_to: 61
  - symbol: Li # 72
    coordinates: [  0.918137405039316,  0.838256875057395,  0.720339890071308 ]
    mass: 6.940000
    reduced_to: 61
  - symbol: Sn # 73
    coordinates: [  0.046031023370859,  0.313541762072311,  0.362305183240603 ]
    mass: 118.710000
    reduced_to: 73
  - symbol: Sn # 74
    coordinates: [  0.379364356704193,  0.313541762072311,  0.362305183240603 ]
    mass: 118.710000
    reduced_to: 73
  - symbol: Sn # 75
    coordinates: [  0.712697690037526,  0.313541762072311,  0.362305183240603 ]
    mass: 118.710000
    reduced_to: 73
  - symbol: Sn # 76
    coordinates: [  0.046031023370859,  0.813541762072311,  0.362305183240603 ]
    mass: 118.710000
    reduced_to: 73
  - symbol: Sn # 77
    coordinates: [  0.379364356704193,  0.813541762072311,  0.362305183240603 ]
    mass: 118.710000
    reduced_to: 73
  - symbol: Sn # 78
    coordinates: [  0.712697690037526,  0.813541762072311,  0.362305183240603 ]
    mass: 118.710000
    reduced_to: 73
  - symbol: Sn # 79
    coordinates: [  0.046031023370859,  0.313541762072311,  0.862305183240603 ]
    mass: 118.710000
    reduced_to: 73
  - symbol: Sn # 80
    coordinates: [  0.379364356704193,  0.313541762072311,  0.862305183240603 ]
    mass: 118.710000
    reduced_to: 73
  - symbol: Sn # 81
    coordinates: [  0.712697690037526,  0.313541762072311,  0.862305183240603 ]
    mass: 118.710000
    reduced_to: 73
  - symbol: Sn # 82
    coordinates: [  0.046031023370859,  0.813541762072311,  0.862305183240603 ]
    mass: 118.710000
    reduced_to: 73
  - symbol: Sn # 83
    coordinates: [  0.379364356704193,  0.813541762072311,  0.862305183240603 ]
    mass: 118.710000
    reduced_to: 73
  - symbol: Sn # 84
    coordinates: [  0.712697690037526,  0.813541762072311,  0.862305183240603 ]
    mass: 118.710000
    reduced_to: 73
  - symbol: Sn # 85
    coordinates: [  0.156912282922150,  0.146709110720795,  0.195731551755259 ]
    mass: 118.710000
    reduced_to: 85
  - symbol: Sn # 86
    coordinates: [  0.490245616255483,  0.146709110720795,  0.195731551755259 ]
    mass: 118.710000
    reduced_to: 85
  - symbol: Sn # 87
    coordinates: [  0.823578949588817,  0.146709110720795,  0.195731551755259 ]
    mass: 118.710000
    reduced_to: 85
  - symbol: Sn # 88
    coordinates: [  0.156912282922150,  0.646709110720795,  0.195731551755259 ]
    mass: 118.710000
    reduced_to: 85
  - symbol: Sn # 89
    coordinates: [  0.490245616255483,  0.646709110720795,  0.195731551755259 ]
    mass: 118.710000
    reduced_to: 85
  - symbol: Sn # 90
    coordinates: [  0.823578949588817,  0.646709110720795,  0.195731551755259 ]
    mass: 118.710000
    reduced_to: 85
  - symbol: Sn # 91
    coordinates: [  0.156912282922150,  0.146709110720795,  0.695731551755259 ]
    mass: 118.710000
    reduced_to: 85
  - symbol: Sn # 92
    coordinates: [  0.490245616255483,  0.146709110720795,  0.695731551755259 ]
    mass: 118.710000
    reduced_to: 85
  - symbol: Sn # 93
    coordinates: [  0.823578949588817,  0.146709110720795,  0.695731551755259 ]
    mass: 118.710000
    reduced_to: 85
  - symbol: Sn # 94
    coordinates: [  0.156912282922150,  0.646709110720795,  0.695731551755259 ]
    mass: 118.710000
    reduced_to: 85
  - symbol: Sn # 95
    coordinates: [  0.490245616255483,  0.646709110720795,  0.695731551755259 ]
    mass: 118.710000
    reduced_to: 85
  - symbol: Sn # 96
    coordinates: [  0.823578949588817,  0.646709110720795,  0.695731551755259 ]
    mass: 118.710000
    reduced_to: 85
  - symbol: Sn # 97
    coordinates: [  0.268229843537907,  0.480266311207866,  0.028761870125326 ]
    mass: 118.710000
    reduced_to: 97
  - symbol: Sn # 98
    coordinates: [  0.601563176871241,  0.480266311207866,  0.028761870125326 ]
    mass: 118.710000
    reduced_to: 97
  - symbol: Sn # 99
    coordinates: [  0.934896510204574,  0.480266311207866,  0.028761870125326 ]
    mass: 118.710000
    reduced_to: 97
  - symbol: Sn # 100
    coordinates: [  0.268229843537907,  0.980266311207866,  0.028761870125326 ]
    mass: 118.710000
    reduced_to: 97
  - symbol: Sn # 101
    coordinates: [  0.601563176871241,  0.980266311207866,  0.028761870125326 ]
    mass: 118.710000
    reduced_to: 97
  - symbol: Sn # 102
    coordinates: [  0.934896510204574,  0.980266311207866,  0.028761870125326 ]
    mass: 118.710000
    reduced_to: 97
  - symbol: Sn # 103
    coordinates: [  0.268229843537907,  0.480266311207866,  0.528761870125326 ]
    mass: 118.710000
    reduced_to: 97
  - symbol: Sn # 104
    coordinates: [  0.601563176871241,  0.480266311207866,  0.528761870125326 ]
    mass: 118.710000
    reduced_to: 97
  - symbol: Sn # 105
    coordinates: [  0.934896510204574,  0.480266311207866,  0.528761870125326 ]
    mass: 118.710000
    reduced_to: 97
  - symbol: Sn # 106
    coordinates: [  0.268229843537907,  0.980266311207866,  0.528761870125326 ]
    mass: 118.710000
    reduced_to: 97
  - symbol: Sn # 107
    coordinates: [  0.601563176871241,  0.980266311207866,  0.528761870125326 ]
    mass: 118.710000
    reduced_to: 97
  - symbol: Sn # 108
    coordinates: [  0.934896510204574,  0.980266311207866,  0.528761870125326 ]
    mass: 118.710000
    reduced_to: 97

displacements:
- atom:    1
  displacement:
    [   0.0100000000000000,  0.0000000000000000,  0.0000000000000000 ]
  forces:
  - [  -0.0362756699323654, -0.0003367727622390,  0.0108285434544086 ]
  - [  -0.0114863496273756, -0.0002479515969753,  0.0107304863631725 ]
  - [  -0.0114778559654951, -0.0002467930316925,  0.0107466913759708 ]
  - [  -0.0110820243135095, -0.0004303706809878,  0.0108469333499670 ]
  - [  -0.0112697407603264, -0.0003571473062038,  0.0107088619843125 ]
  - [  -0.0112736430019140,  0.0000331606715918,  0.0106667513027787 ]
  - [  -0.0113616734743118, -0.0002397699281573,  0.0107386969029903 ]
  - [  -0.0113586578518152, -0.0002528214827180,  0.0107573131099343 ]
  - [  -0.0113587211817503, -0.0002490021288395,  0.0107260411605239 ]
  - [  -0.0113583095371723, -0.0002460479736328,  0.0107403006404638 ]
  - [  -0.0113603090867400, -0.0002417759969831,  0.0107364067807794 ]
  - [  -0.0113596264272928, -0.0002508899196982,  0.0107435174286366 ]
  - [  -0.0080931028351188,  0.0094634937122464, -0.0049165934324265 ]
  - [  -0.0080989841371775,  0.0093208998441696, -0.0047982325777411 ]
  - [  -0.0081336265429854,  0.0093805184587836, -0.0048672258853912 ]
  - [  -0.0081776017323136,  0.0092334728688002, -0.0047669913619757 ]
  - [  -0.0081737544387579,  0.0093937125056982, -0.0048496676608920 ]
  - [  -0.0081763658672571,  0.0095398370176554, -0.0049543995410204 ]
  - [  -0.0081489570438862,  0.0093874391168356, -0.0048568770289421 ]
  - [  -0.0081395320594311,  0.0093998657539487, -0.0048694182187319 ]
  - [  -0.0081407353281975,  0.0093889394775033, -0.0048599755391479 ]
  - [  -0.0079982969909906,  0.0093932356685400, -0.0049839746206999 ]
  - [  -0.0079960785806179,  0.0093918200582266, -0.0047411192208529 ]
  - [  -0.0081804767251015,  0.0093916812911630, -0.0048619881272316 ]
  - [   0.0170577634125948, -0.0107221873477101,  0.0069633815437555 ]
  - [   0.0172797925770283, -0.0172546971589327,  0.0110141728073359 ]
  - [   0.0109498798847198, -0.0138964690268040,  0.0089306440204382 ]
  - [   0.0107075087726116, -0.0139007493853569,  0.0089319683611393 ]
  - [   0.0102692712098360, -0.0143433064222336,  0.0088638802990317 ]
  - [   0.0103048216551542, -0.0134371072053909,  0.0090018976479769 ]
  - [   0.0108853094279766, -0.0139043964445591,  0.0089083500206470 ]
  - [   0.0109204966574907, -0.0138975894078612,  0.0089301243424416 ]
  - [   0.0108808539807796, -0.0138921672478318,  0.0089594163000584 ]
  - [   0.0108909020200372, -0.0138876847922802,  0.0089300423860550 ]
  - [   0.0108915120363235, -0.0139099955558777,  0.0089340815320611 ]
  - [   0.0109034068882465, -0.0138986371457577,  0.0089329937472939 ]
  - [  -0.0083981826901436,  0.0015082526952028, -0.0070224432274699 ]
  - [  -0.0083970706909895,  0.0011717928573489, -0.0065083187073469 ]
  - [  -0.0085816690698266,  0.0013465359807014, -0.0067754164338112 ]
  - [  -0.0085452366620302,  0.0013372022658587, -0.0067686336115003 ]
  - [  -0.0085525754839182,  0.0013478295877576, -0.0067785819992423 ]
  - [  -0.0085438238456845,  0.0013521360233426, -0.0067787747830153 ]
  - [  -0.0085650756955147,  0.0013298126868904, -0.0067807314917445 ]
  - [  -0.0085803614929318,  0.0014795432798564, -0.0068944375962019 ]
  - [  -0.0085797142237425,  0.0012153275310993, -0.0066554723307490 ]
  - [  -0.0085073644295335,  0.0012627132236958, -0.0067216847091913 ]
  - [  -0.0084995701909065,  0.0014250706881285, -0.0068399626761675 ]
  - [  -0.0085339667275548,  0.0013649389147758, -0.0067742038518190 ]
  - [   0.0037292032502592, -0.0008097533136606, -0.0044374219141901 ]
  - [   0.0041017518378794, -0.0008452413603663, -0.0039681061170995 ]
  - [   0.0037282137200236, -0.0008862051181495, -0.0035060760565102 ]
  - [   0.0042901593260467, -0.0008592912927270, -0.0039597786962986 ]
  - [   0.0042991666123271, -0.0008529420010746, -0.0039743008092046 ]
  - [   0.0043050004169345, -0.0008325553499162, -0.0039703310467303 ]
  - [   0.0041025523096323, -0.0007108137942851, -0.0037740850821137 ]
  - [   0.0041075330227613, -0.0009866151958704, -0.0041636107489467 ]
  - [   0.0043018441647291, -0.0008491878397763, -0.0039670900441706 ]
  - [   0.0043305191211402, -0.0008321073837578, -0.0039793252944946 ]
  - [   0.0042637395672500, -0.0008756392635405, -0.0039798207581043 ]
  - [   0.0042805653065443, -0.0008410215377808, -0.0039420207031071 ]
  - [   0.0065796109847724,  0.0008280891925097, -0.0008597820997238 ]
  - [   0.0069008674472570,  0.0008382983505726, -0.0008699735626578 ]
  - [   0.0069026499986649,  0.0009026145562530, -0.0009011700749397 ]
  - [   0.0068005369976163,  0.0007589245215058, -0.0010685678571463 ]
  - [   0.0068116839975119,  0.0009900480508804, -0.0006912890821695 ]
  - [   0.0069472650066018,  0.0008697174489498, -0.0008947029709816 ]
  - [   0.0069749699905515,  0.0008766129612923, -0.0009089140221477 ]
  - [   0.0069639747962356,  0.0008713193237782, -0.0008871182799339 ]
  - [   0.0069783809594810,  0.0008659642189741, -0.0008662613108754 ]
  - [   0.0069224536418915,  0.0008701728656888, -0.0008847005665302 ]
  - [   0.0069796950556338,  0.0008668601512909, -0.0008839238435030 ]
  - [   0.0069806622341275,  0.0008728448301554, -0.0008894912898540 ]
  - [   0.0019590454176068, -0.0027274694293737, -0.0018170028924942 ]
  - [   0.0021959971636534,  0.0016595963388681, -0.0034579616039991 ]
  - [  -0.0020618559792638, -0.0006351247429848, -0.0026319101452827 ]
  - [  -0.0022431171964854, -0.0007861927151680, -0.0027743354439735 ]
  - [  -0.0018149022944272, -0.0005890522152185, -0.0026420373469591 ]
  - [  -0.0022372589446604, -0.0005206037312746, -0.0024820920079947 ]
  - [  -0.0021528713405132, -0.0006516668945551, -0.0026057492941618 ]
  - [  -0.0021608183160424, -0.0006396789103746, -0.0026283543556929 ]
  - [  -0.0021476643159986, -0.0006246231496334, -0.0026591476052999 ]
  - [  -0.0021492466330528, -0.0006445944309235, -0.0026317983865738 ]
  - [  -0.0021560823079199, -0.0006617456674576, -0.0026689618825912 ]
  - [  -0.0021537439897656, -0.0006158053874969, -0.0026009082794189 ]
  - [   0.0100817168131471,  0.0012664534151554, -0.0062729418277740 ]
  - [   0.0103252995759249,  0.0037511810660362, -0.0089457333087921 ]
  - [   0.0068640965037048,  0.0024744644761086, -0.0074975155293941 ]
  - [   0.0067523559555411,  0.0024803122505546, -0.0075071360915899 ]
  - [   0.0067252265289426,  0.0024855621159077, -0.0075474875047803 ]
  - [   0.0067891832441092,  0.0024517197161913, -0.0074296509847045 ]
  - [   0.0067294002510607,  0.0024710809811950, -0.0075013637542725 ]
  - [   0.0067773163318634,  0.0024528261274099, -0.0075049921870232 ]
  - [   0.0067817405797541,  0.0024867700412869, -0.0075068250298500 ]
  - [   0.0067575164139271,  0.0024664867669344, -0.0075323004275560 ]
  - [   0.0067625669762492,  0.0024630967527628, -0.0074861887842417 ]
  - [   0.0067695071920753,  0.0024892799556255, -0.0074731502681971 ]
  - [   0.0012143626809120,  0.0015502236783504,  0.0069485902786255 ]
  - [   0.0012631211429834,  0.0016032624989748,  0.0069515854120255 ]
  - [   0.0012687835842371,  0.0014972779899836,  0.0069524291902781 ]
  - [   0.0012331120669842,  0.0019614044576883,  0.0075289290398359 ]
  - [   0.0012322589755058,  0.0011476408690214,  0.0063804779201746 ]
  - [   0.0012955032289028,  0.0015554949641228,  0.0069471690803766 ]
  - [   0.0012212861329317,  0.0020172437652946,  0.0075443573296070 ]
  - [   0.0012827776372433,  0.0015372587367892,  0.0069531053304672 ]
  - [   0.0012473650276661,  0.0011035688221455,  0.0063595501706004 ]
  - [   0.0015878602862358,  0.0015784800052643,  0.0069212969392538 ]
  - [   0.0012001879513264,  0.0014641191810369,  0.0068049468100071 ]
  - [   0.0012002177536488,  0.0016368962824345,  0.0070947129279375 ]
- atom:    1
  displacement:
    [  -0.0100000000000000,  0.0000000000000000,  0.0000000000000000 ]
  forces:
  - [   0.0135516952723265, -0.0003064321354032,  0.0107601620256901 ]
  - [  -0.0112379528582096, -0.0002465257421136,  0.0107488296926022 ]
  - [  -0.0112294657155871, -0.0002480652183294,  0.0107328407466412 ]
  - [  -0.0116331577301025, -0.0000701593235135,  0.0106329368427396 ]
  - [  -0.0114445630460978, -0.0001357160508633,  0.0107700731605291 ]
  - [  -0.0114487614482641, -0.0005359221249819,  0.0108151566237211 ]
  - [  -0.0113577917218208, -0.0002551265060902,  0.0107430443167686 ]
  - [  -0.0113608520478010, -0.0002416279166937,  0.0107243712991476 ]
  - [  -0.0113606285303831, -0.0002453569322824,  0.0107548516243696 ]
  - [  -0.0113598052412271, -0.0002466160804033,  0.0107402978464961 ]
  - [  -0.0113595239818096, -0.0002505970187485,  0.0107431402429938 ]
  - [  -0.0113590806722641, -0.0002422649413347,  0.0107373585924506 ]
  - [  -0.0081778233870864,  0.0093169203028083, -0.0048071397468448 ]
  - [  -0.0081714279949665,  0.0094605479389429, -0.0049240123480558 ]
  - [  -0.0081367203965783,  0.0094027873128653, -0.0048578232526779 ]
  - [  -0.0080912960693240,  0.0095483306795359, -0.0049586826935410 ]
  - [  -0.0080957543104887,  0.0093925800174475, -0.0048599196597934 ]
  - [  -0.0080921053886414,  0.0092401551082730, -0.0047685457393527 ]
  - [  -0.0081194126978517,  0.0093975597992539, -0.0048660449683666 ]
  - [  -0.0081295035779476,  0.0093839382752776, -0.0048553952947259 ]
  - [  -0.0081282807514071,  0.0093951411545277, -0.0048647606745362 ]
  - [  -0.0082728620618582,  0.0093913497403264, -0.0047403126955032 ]
  - [  -0.0082723600789905,  0.0093929227441549, -0.0049836132675409 ]
  - [  -0.0080951526761055,  0.0093913897871971, -0.0048623923212290 ]
  - [   0.0046315724030137, -0.0171540863811970,  0.0109511362388730 ]
  - [   0.0046177445910871, -0.0106249637901783,  0.0069009885191917 ]
  - [   0.0108412178233266, -0.0138999838382006,  0.0089315874502063 ]
  - [   0.0110844690352678, -0.0138958366587758,  0.0089327525347471 ]
  - [   0.0115268724039197, -0.0134520344436169,  0.0090012736618519 ]
  - [   0.0114864436909556, -0.0143546946346760,  0.0088623370975256 ]
  - [   0.0109092779457569, -0.0138915842399001,  0.0089583061635494 ]
  - [   0.0108688417822123, -0.0138982115313411,  0.0089343972504139 ]
  - [   0.0109088514000177, -0.0139045007526875,  0.0089055150747299 ]
  - [   0.0108980182558298, -0.0139093808829784,  0.0089343516156077 ]
  - [   0.0108981430530548, -0.0138877322897315,  0.0089310705661774 ]
  - [   0.0108897369354963, -0.0138990730047226,  0.0089315650984645 ]
  - [  -0.0086798584088683,  0.0011795070022345, -0.0065212585031986 ]
  - [  -0.0086766853928566,  0.0015146108344197, -0.0070348447188735 ]
  - [  -0.0084939915686846,  0.0013464773073792, -0.0067748008295894 ]
  - [  -0.0085337692871690,  0.0013554813340306, -0.0067817941308022 ]
  - [  -0.0085232239216566,  0.0013416511937976, -0.0067725712433457 ]
  - [  -0.0085306437686086,  0.0013404921628535, -0.0067714974284172 ]
  - [  -0.0085106212645769,  0.0013490472920239, -0.0067789312452078 ]
  - [  -0.0084963170811534,  0.0012135691940784, -0.0066552422940731 ]
  - [  -0.0084975007921457,  0.0014781863428652, -0.0068944720551372 ]
  - [  -0.0085711367428303,  0.0014367103576660, -0.0068339928984642 ]