# Tetrahedron method
       -1.9191533725        0.0000000000
       -1.8421864080        0.0000000000
       -1.7652194435        0.0000000000
       -1.6882524790        0.0000000000
       -1.6112855145        0.0000000000
       -1.5343185500        0.0000000000
       -1.4573515855        0.0000000000
       -1.3803846209        0.0000000000
       -1.3034176564        0.0000000000
       -1.2264506919        0.0000000000
       -1.1494837274        0.0000000000
       -1.0725167629        0.0000000000
       -0.9955497984        0.0000000000
       -0.9185828339        0.0000000000
       -0.8416158694        0.0000000000
       -0.7646489049        0.0000000000
       -0.6876819404        0.0000000000
       -0.6107149759        0.0020304564
       -0.5337480114        0.0193837815
       -0.4567810469        0.0237076444
       -0.3798140823        0.0295165044
       -0.3028471178        0.0253301367
       -0.2258801533        0.0255924680
       -0.1489131888        0.0261630238
       -0.0719462243        0.0277772697
        0.0050207402        0.0300605418
        0.0819877047        0.0343108201
        0.1589546692        0.0423583157
        0.2359216337        0.0591011996
        0.3128885982        0.0897184214
        0.3898555627        0.1259696588
        0.4668225272        0.1734588027
        0.5437894917        0.2275591649
        0.6207564562        0.2901336221
        0.6977234208        0.3621482719
        0.7746903853        0.4415115126
        0.8516573498        0.5210511922
        0.9286243143        0.6274435188
        1.0055912788        0.7365333603
        1.0825582433        0.8818664699
        1.1595252078        1.0513993719
        1.2364921723        1.2580565734
        1.3134591368        1.4717018406
        1.3904261013        1.5779885291
        1.4673930658        1.6617257977
        1.5443600303        1.7975986889
        1.6213269948        1.8782854423
        1.6982939593        2.0241996667
        1.7752609239        2.2906073405
        1.8522278884        2.4781903882
        1.9291948529        2.8851899438
        2.0061618174        3.4556540992
        2.0831287819        4.4285375310
        2.1600957464        5.8893451894
        2.2370627109        8.0939350713
        2.3140296754       10.2839560509
        2.3909966399        6.7345794782
        2.4679636044        6.0562425254
        2.5449305689        7.0641578834
        2.6218975334        6.8570102524
        2.6988644979        6.7365048165
        2.7758314625        6.0086848958
        2.8527984270        3.2410369503
        2.9297653915        1.4048615195
        3.0067323560        2.0649762591
        3.0836993205        2.0518694241
        3.1606662850        1.9915876624
        3.2376332495        1.8965186426
        3.3146002140        2.1616075291
        3.3915671785        2.2044618906
        3.4685341430        1.0519979086
        3.5455011075        3.0775545288
        3.6224680720        2.4773522938
        3.6994350365        2.8206880836
        3.7764020010        3.6243142527
        3.8533689656        5.0629527901
        3.9303359301        1.5279056115
        4.0073028946        1.0633150836
        4.0842698591        0.8346998048
        4.1612368236        0.6488990978
        4.2382037881        0.5937206624
        4.3151707526        0.7510875099
        4.3921377171        1.0980032724
        4.4691046816        1.1897012281
        4.5460716461        0.9607832363
        4.6230386106        0.8420765960
        4.7000055751        0.8228725176
        4.7769725396        0.9436472284
        4.8539395042        1.0544811447
        4.9309064687        1.0629268008
        5.0078734332        0.9745780846
        5.0848403977        0.9044817255
        5.1618073622        1.0117443582
        5.2387743267        1.1666851270
        5.3157412912        1.0017474015
        5.3927082557        0.9170740095
        5.4696752202        0.8638985623
        5.5466421847        0.8735680653
        5.6236091492        0.8296675973
        5.7005761137        0.8121684689
        5.7775430782        0.8097819048
        5.8545100427        0.8177948378
        5.9314770073        0.8888955603
        6.0084439718        1.0875208868
        6.0854109363        1.3283140660
        6.1623779008        1.6856706716
        6.2393448653        3.2415127596
        6.3163118298        4.3483297596
        6.3932787943        4.9480958668
        6.4702457588        5.9638720018
        6.5472127233        6.3241087475
        6.6241796878        5.2061057400
        6.7011466523        3.9587465013
        6.7781136168        3.0458817462
        6.8550805813        2.5653985985
        6.9320475458        2.3098949404
        7.0090145104        1.9987034827
        7.0859814749        1.8540012471
        7.1629484394        1.8734253420
        7.2399154039        2.0320801023
        7.3168823684        2.3835331187
        7.3938493329        2.4599533441
        7.4708162974        2.8415016041
        7.5477832619        2.9128120111
        7.6247502264        3.1872362972
        7.7017171909        2.9391847237
        7.7786841554        2.6528201774
        7.8556511199        2.7826683237
        7.9326180844        3.1436092507
        8.0095850490        3.0673157041
        8.0865520135        3.1704526395
        8.1635189780        3.4008062642
        8.2404859425        3.4840147713
        8.3174529070        3.4471573022
        8.3944198715        3.2149930296
        8.4713868360        2.8075772658
        8.5483538005        2.5953101160
        8.6253207650        2.4974257045
        8.7022877295        2.2862834811
        8.7792546940        2.0774657255
        8.8562216585        1.9198925423
        8.9331886230        1.6093764671
        9.0101555875        1.0735814756
        9.0871225521        0.6594688991
        9.1640895166        0.3247220802
        9.2410564811        0.3029754485
        9.3180234456        0.3219247242
        9.3949904101        0.3467303008
        9.4719573746        0.3877161515
        9.5489243391        0.4320293373
        9.6258913036        0.5825682028
        9.7028582681        0.8032013547
        9.7798252326        0.9921758612
        9.8567921971        1.2772470651
        9.9337591616        1.6983866024
       10.0107261261        1.8580000633
       10.0876930907        1.9534211772
       10.1646600552        1.9482524273
       10.2416270197        1.9519341900
       10.3185939842        2.0421520786
       10.3955609487        2.0259971547
       10.4725279132        2.0184997862
       10.5494948777        1.8410747967
       10.6264618422        1.5570733622
       10.7034288067        1.8626480148
       10.7803957712        2.1405008169
       10.8573627357        2.3064375437
       10.9343297002        2.5731264083
       11.0112966647        1.9352156930
       11.0882636292        1.3087578762
       11.1652305938        1.5644610394
       11.2421975583        1.9926503219
       11.3191645228        2.6979562911
       11.3961314873        3.9074104469
       11.4730984518        5.3612379055
       11.5500654163        6.9783824597
       11.6270323808        6.4817350190
       11.7039993453        5.2056127072
       11.7809663098        3.0957950256
       11.8579332743        1.9904376392
       11.9349002388        1.2300615020
       12.0118672033        0.7243444806
       12.0888341678        0.4215528960
       12.1658011323        0.1217973245
       12.2427680969        0.0000000000
       12.3197350614        0.0000000000
       12.3967020259        0.0000000000
       12.4736689904        0.0000000000
       12.5506359549        0.0000000000
       12.6276029194        0.0000000000
       12.7045698839        0.0000000000
       12.7815368484        0.0000000000
       12.8585038129        0.0000000000
       12.9354707774        0.0000000000
       13.0124377419        0.0000000000
       13.0894047064        0.0000000000
       13.1663716709        0.0000000000
       13.2433386355        0.0000000000
       13.3203056000        0.0000000000
       13.3972725645        0.0000000000
       13.4742395290        0.0000000000
