# Thermal properties / unit cell (natom)

unit:
  temperature:   K
  free_energy:   kJ/mol
  entropy:       J/K/mol
  heat_capacity: J/K/mol

natom: 10   
cutoff_frequency: 0.00000
num_modes: 105600
num_integrated_modes: 105598

zero_point_energy:       8.8987295

thermal_properties:
- temperature:         0.0000000
  free_energy:         8.8987295
  entropy:             0.0000000
  heat_capacity:       0.0000000
  energy:              8.8987295

- temperature:        10.0000000
  free_energy:         8.8793418
  entropy:             7.8893592
  heat_capacity:      24.2580710
  energy:              8.9582354

- temperature:        20.0000000
  free_energy:         8.6192203
  entropy:            48.6197361
  heat_capacity:     102.4668498
  energy:              9.5916150

- temperature:        30.0000000
  free_energy:         7.8681404
  entropy:           101.8221553
  heat_capacity:     158.7445629
  energy:             10.9228050

- temperature:        40.0000000
  free_energy:         6.5930958
  entropy:           152.2966345
  heat_capacity:     190.6452272
  energy:             12.6849612

- temperature:        50.0000000
  free_energy:         4.8417762
  entropy:           196.9873024
  heat_capacity:     208.9942013
  energy:             14.6911413

- temperature:        60.0000000
  free_energy:         2.6717959
  entropy:           236.1579715
  heat_capacity:     220.1698989
  energy:             16.8412742

- temperature:        70.0000000
  free_energy:         0.1341149
  entropy:           270.6765263
  heat_capacity:     227.3766537
  energy:             19.0814718

- temperature:        80.0000000
  free_energy:        -2.7290256
  entropy:           301.3769968
  heat_capacity:     232.2578869
  energy:             21.3811342

- temperature:        90.0000000
  free_energy:        -5.8829931
  entropy:           328.9430225
  heat_capacity:     235.7019234
  energy:             23.7218789

- temperature:       100.0000000
  free_energy:        -9.2992468
  entropy:           353.9134028
  heat_capacity:     238.2157750
  energy:             26.0920935

- temperature:       110.0000000
  free_energy:       -12.9540265
  entropy:           376.7104155
  heat_capacity:     240.1034446
  energy:             28.4841192

- temperature:       120.0000000
  free_energy:       -16.8273279
  entropy:           397.6670377
  heat_capacity:     241.5552369
  energy:             30.8927166

- temperature:       130.0000000
  free_energy:       -20.9021225
  entropy:           417.0485394
  heat_capacity:     242.6948105
  energy:             33.3141876

- temperature:       140.0000000
  free_energy:       -25.1637652
  entropy:           435.0686909
  heat_capacity:     243.6051573
  energy:             35.7458515

- temperature:       150.0000000
  free_energy:       -29.5995427
  entropy:           451.9017478
  heat_capacity:     244.3435655
  energy:             38.1857195

- temperature:       160.0000000
  free_energy:       -34.1983245
  entropy:           467.6913159
  heat_capacity:     244.9505662
  energy:             40.6322860

- temperature:       170.0000000
  free_energy:       -38.9502914
  entropy:           482.5569568
  heat_capacity:     245.4554634
  energy:             43.0843913

- temperature:       180.0000000
  free_energy:       -43.8467206
  entropy:           496.5991560
  heat_capacity:     245.8798554
  energy:             45.5411275

- temperature:       190.0000000
  free_energy:       -48.8798150
  entropy:           509.9031024
  heat_capacity:     246.2399362
  energy:             48.0017744

- temperature:       200.0000000
  free_energy:       -54.0425655
  entropy:           522.5415941
  heat_capacity:     246.5480354
  energy:             50.4657533

- temperature:       210.0000000
  free_energy:       -59.3286385
  entropy:           534.5772969
  heat_capacity:     246.8136714
  energy:             52.9325938

- temperature:       220.0000000
  free_energy:       -64.7322840
  entropy:           546.0645187
  heat_capacity:     247.0442848
  energy:             55.4019101

- temperature:       230.0000000
  free_energy:       -70.2482591
  entropy:           557.0506159
  heat_capacity:     247.2457589
  energy:             57.8733825

- temperature:       240.0000000
  free_energy:       -75.8717649
  entropy:           567.5771201
  heat_capacity:     247.4227940
  energy:             60.3467440

- temperature:       250.0000000
  free_energy:       -81.5983921
  entropy:           577.6806469
  heat_capacity:     247.5791812
  energy:             62.8217697

- temperature:       260.0000000
  free_energy:       -87.4240764
  entropy:           587.3936365
  heat_capacity:     247.7180055
  energy:             65.2982691

- temperature:       270.0000000
  free_energy:       -93.3450596
  entropy:           596.7449604
  heat_capacity:     247.8417974
  energy:             67.7760797

- temperature:       280.0000000
  free_energy:       -99.3578564
  entropy:           605.7604225
  heat_capacity:     247.9526481
  energy:             70.2550619

- temperature:       290.0000000
  free_energy:      -105.4592259
  entropy:           614.4631769
  heat_capacity:     248.0522980
  energy:             72.7350954

- temperature:       300.0000000
  free_energy:      -111.6461473
  entropy:           622.8740758
  heat_capacity:     248.1422050
  energy:             75.2160755

- temperature:       310.0000000
  free_energy:      -117.9157976
  entropy:           631.0119636
  heat_capacity:     248.2235973
  energy:             77.6979111

- temperature:       320.0000000
  free_energy:      -124.2655336
  entropy:           638.8939254
  heat_capacity:     248.2975160
  energy:             80.1805225

- temperature:       330.0000000
  free_energy:      -130.6928750
  entropy:           646.5354983
  heat_capacity:     248.3648478
  energy:             82.6638395

- temperature:       340.0000000
  free_energy:      -137.1954897
  entropy:           653.9508521
  heat_capacity:     248.4263519
  energy:             85.1478000

- temperature:       350.0000000
  free_energy:      -143.7711813
  entropy:           661.1529444
  heat_capacity:     248.4826813
  energy:             87.6323493

- temperature:       360.0000000
  free_energy:      -150.4178774
  entropy:           668.1536547
  heat_capacity:     248.5344000
  energy:             90.1174383

- temperature:       370.0000000
  free_energy:      -157.1336196
  entropy:           674.9639003
  heat_capacity:     248.5819975
  energy:             92.6030235

- temperature:       380.0000000
  free_energy:      -163.9165541
  entropy:           681.5937370
  heat_capacity:     248.6258999
  energy:             95.0890660

- temperature:       390.0000000
  free_energy:      -170.7649240
  entropy:           688.0524473
  heat_capacity:     248.6664797
  energy:             97.5755305

- temperature:       400.0000000
  free_energy:      -177.6770613
  entropy:           694.3486172
  heat_capacity:     248.7040637
  energy:            100.0623856

- temperature:       410.0000000
  free_energy:      -184.6513811
  entropy:           700.4902044
  heat_capacity:     248.7389394
  energy:            102.5496027

- temperature:       420.0000000
  free_energy:      -191.6863748
  entropy:           706.4845976
  heat_capacity:     248.7713608
  energy:            105.0371562

- temperature:       430.0000000
  free_energy:      -198.7806054
  entropy:           712.3386695
  heat_capacity:     248.8015527
  energy:            107.5250225

- temperature:       440.0000000
  free_energy:      -205.9327019
  entropy:           718.0588235
  heat_capacity:     248.8297149
  energy:            110.0131805

- temperature:       450.0000000
  free_energy:      -213.1413554
  entropy:           723.6510357
  heat_capacity:     248.8560251
  energy:            112.5016106

- temperature:       460.0000000
  free_energy:      -220.4053148
  entropy:           729.1208915
  heat_capacity:     248.8806422
  energy:            114.9902953

- temperature:       470.0000000
  free_energy:      -227.7233828
  entropy:           734.4736195
  heat_capacity:     248.9037083
  energy:            117.4792183

- temperature:       480.0000000
  free_energy:      -235.0944131
  entropy:           739.7141205
  heat_capacity:     248.9253510
  energy:            119.9683647

- temperature:       490.0000000
  free_energy:      -242.5173065
  entropy:           744.8469949
  heat_capacity:     248.9456849
  energy:            122.4577210

- temperature:       500.0000000
  free_energy:      -249.9910087
  entropy:           749.8765662
  heat_capacity:     248.9648134
  energy:            124.9472744

- temperature:       510.0000000
  free_energy:      -257.5145071
  entropy:           754.8069032
  heat_capacity:     248.9828300
  energy:            127.4370135

- temperature:       520.0000000
  free_energy:      -265.0868288
  entropy:           759.6418392
  heat_capacity:     248.9998191
  energy:            129.9269276

- temperature:       530.0000000
  free_energy:      -272.7070380
  entropy:           764.3849900
  heat_capacity:     249.0158573
  energy:            132.4170067

- temperature:       540.0000000
  free_energy:      -280.3742340
  entropy:           769.0397701
  heat_capacity:     249.0310143
  energy:            134.9072418

- temperature:       550.0000000
  free_energy:      -288.0875496
  entropy:           773.6094071
  heat_capacity:     249.0453535
  energy:            137.3976243

- temperature:       560.0000000
  free_energy:      -295.8461486
  entropy:           778.0969552
  heat_capacity:     249.0589326
  energy:            139.8881464

- temperature:       570.0000000
  free_energy:      -303.6492247
  entropy:           782.5053076
  heat_capacity:     249.0718043
  energy:            142.3788006

- temperature:       580.0000000
  free_energy:      -311.4959999
  entropy:           786.8372071
  heat_capacity:     249.0840171
  energy:            144.8695802

- temperature:       590.0000000
  free_energy:      -319.3857227
  entropy:           791.0952569
  heat_capacity:     249.0956150
  energy:            147.3604789

- temperature:       600.0000000
  free_energy:      -327.3176671
  entropy:           795.2819296
  heat_capacity:     249.1066387
  energy:            149.8514906

- temperature:       610.0000000
  free_energy:      -335.2911312
  entropy:           799.3995756
  heat_capacity:     249.1171254
  energy:            152.3426099

- temperature:       620.0000000
  free_energy:      -343.3054360
  entropy:           803.4504314
  heat_capacity:     249.1271094
  energy:            154.8338315

- temperature:       630.0000000
  free_energy:      -351.3599243
  entropy:           807.4366267
  heat_capacity:     249.1366224
  energy:            157.3251505

- temperature:       640.0000000
  free_energy:      -359.4539598
  entropy:           811.3601910
  heat_capacity:     249.1456935
  energy:            159.8165624

- temperature:       650.0000000
  free_energy:      -367.5869258
  entropy:           815.2230597
  heat_capacity:     249.1543497
  energy:            162.3080630

- temperature:       660.0000000
  free_energy:      -375.7582248
  entropy:           819.0270802
  heat_capacity:     249.1626158
  energy:            164.7996481

- temperature:       670.0000000
  free_energy:      -383.9672772
  entropy:           822.7740168
  heat_capacity:     249.1705150
  energy:            167.2913141

- temperature:       680.0000000
  free_energy:      -392.2135205
  entropy:           826.4655556
  heat_capacity:     249.1780687
  energy:            169.7830573

- temperature:       690.0000000
  free_energy:      -400.4964090
  entropy:           830.1033092
  heat_capacity:     249.1852966
  energy:            172.2748744

- temperature:       700.0000000
  free_energy:      -408.8154126
  entropy:           833.6888211
  heat_capacity:     249.1922173
  energy:            174.7667622

- temperature:       710.0000000
  free_energy:      -417.1700162
  entropy:           837.2235689
  heat_capacity:     249.1988480
  energy:            177.2587177

- temperature:       720.0000000
  free_energy:      -425.5597194
  entropy:           840.7089690
  heat_capacity:     249.2052045
  energy:            179.7507382

- temperature:       730.0000000
  free_energy:      -433.9840356
  entropy:           844.1463789
  heat_capacity:     249.2113019
  energy:            182.2428210

- temperature:       740.0000000
  free_energy:      -442.4424914
  entropy:           847.5371012
  heat_capacity:     249.2171539
  energy:            184.7349635

- temperature:       750.0000000
  free_energy:      -450.9346262
  entropy:           850.8823860
  heat_capacity:     249.2227737
  energy:            187.2271633

- temperature:       760.0000000
  free_energy:      -459.4599917
  entropy:           854.1834340
  heat_capacity:     249.2281733
  energy:            189.7194182

- temperature:       770.0000000
  free_energy:      -468.0181513
  entropy:           857.4413991
  heat_capacity:     249.2333640
  energy:            192.2117260

- temperature:       780.0000000
  free_energy:      -476.6086797
  entropy:           860.6573905
  heat_capacity:     249.2383566
  energy:            194.7040848

- temperature:       790.0000000
  free_energy:      -485.2311627
  entropy:           863.8324750
  heat_capacity:     249.2431609
  energy:            197.1964926

- temperature:       800.0000000
  free_energy:      -493.8851963
  entropy:           866.9676797
  heat_capacity:     249.2477863
  energy:            199.6889474

- temperature:       810.0000000
  free_energy:      -502.5703867
  entropy:           870.0639931
  heat_capacity:     249.2522416
  energy:            202.1814477

- temperature:       820.0000000
  free_energy:      -511.2863497
  entropy:           873.1223676
  heat_capacity:     249.2565350
  energy:            204.6739917

- temperature:       830.0000000
  free_energy:      -520.0327106
  entropy:           876.1437211
  heat_capacity:     249.2606743
  energy:            207.1665779

- temperature:       840.0000000
  free_energy:      -528.8091037
  entropy:           879.1289386
  heat_capacity:     249.2646668
  energy:            209.6592047

- temperature:       850.0000000
  free_energy:      -537.6151718
  entropy:           882.0788736
  heat_capacity:     249.2685192
  energy:            212.1518708

- temperature:       860.0000000
  free_energy:      -546.4505663
  entropy:           884.9943500
  heat_capacity:     249.2722382
  energy:            214.6445747

- temperature:       870.0000000
  free_energy:      -555.3149466
  entropy:           887.8761629
  heat_capacity:     249.2758297
  energy:            217.1373151

- temperature:       880.0000000
  free_energy:      -564.2079799
  entropy:           890.7250804
  heat_capacity:     249.2792995
  energy:            219.6300909

- temperature:       890.0000000
  free_energy:      -573.1293410
  entropy:           893.5418447
  heat_capacity:     249.2826532
  energy:            222.1229007

- temperature:       900.0000000
  free_energy:      -582.0787120
  entropy:           896.3271729
  heat_capacity:     249.2858957
  energy:            224.6157435

- temperature:       910.0000000
  free_energy:      -591.0557820
  entropy:           899.0817586
  heat_capacity:     249.2890320
  energy:            227.1086183

- temperature:       920.0000000
  free_energy:      -600.0602470
  entropy:           901.8062726
  heat_capacity:     249.2920666
  energy:            229.6015238

- temperature:       930.0000000
  free_energy:      -609.0918094
  entropy:           904.5013642
  heat_capacity:     249.2950040
  energy:            232.0944593

- temperature:       940.0000000
  free_energy:      -618.1501783
  entropy:           907.1676616
  heat_capacity:     249.2978481
  energy:            234.5874236

- temperature:       950.0000000
  free_energy:      -627.2350687
  entropy:           909.8057733
  heat_capacity:     249.3006030
  energy:            237.0804159

- temperature:       960.0000000
  free_energy:      -636.3462017
  entropy:           912.4162887
  heat_capacity:     249.3032722
  energy:            239.5734354

- temperature:       970.0000000
  free_energy:      -645.4833044
  entropy:           914.9997788
  heat_capacity:     249.3058594
  energy:            242.0664811

- temperature:       980.0000000
  free_energy:      -654.6461091
  entropy:           917.5567973
  heat_capacity:     249.3083678
  energy:            244.5595523

- temperature:       990.0000000
  free_energy:      -663.8343539
  entropy:           920.0878809
  heat_capacity:     249.3108006
  energy:            247.0526482

- temperature:      1000.0000000
  free_energy:      -673.0477820
  entropy:           922.5935501
  heat_capacity:     249.3131609
  energy:            249.5457681
