phonopy:
  version: "2.37.1"
  frequency_unit_conversion_factor: 15.633302
  symmetry_tolerance: 1.00000e-05

space_group:
  type: "Im-3m"
  number: 229
  Hall_symbol: "-I 4 2 3"

primitive_matrix:
- [  1.000000000000000,  0.000000000000000, -0.000000000000000 ]
- [  1.000000000000000, -1.000000000000000, -0.000000000000000 ]
- [  1.000000000000000,  0.000000000000000, -1.000000000000000 ]

supercell_matrix:
- [   4,   0,   0 ]
- [   0,   4,   0 ]
- [   0,   0,   4 ]

primitive_cell:
  lattice:
  - [     1.000687030386690,     1.415185169052483,     2.451172598127213 ] # a
  - [     1.000686985276020,    -2.830370342733056,     0.000000000000000 ] # b
  - [     1.000687066121082,     1.415185173680573,    -2.451172598127213 ] # c
  points:
  - symbol: Li # 1
    coordinates: [  0.000000000000000,  0.000000000000000,  0.000000000000000 ]
    mass: 6.940000
  reciprocal_lattice: # without 2pi
  - [     0.333104481473712,     0.117770213429380,     0.203984006106378 ] # a*
  - [     0.333104481473712,    -0.235540441682411,     0.000000002205717 ] # b*
  - [     0.333104481473712,     0.117770213429380,    -0.203984001027855 ] # c*

unit_cell:
  lattice:
  - [     3.002061081783792,     0.000000000000000,     0.000000000000000 ] # a
  - [    -1.000686985276020,     2.830370342733056,     0.000000000000000 ] # b
  - [    -1.000687066121083,    -1.415185173680573,     2.451172598127212 ] # c
  points:
  - symbol: Li # 1
    coordinates: [  0.000000000000000,  0.000000000000000,  0.000000000000000 ]
    mass: 6.940000
    reduced_to: 1

supercell:
  lattice:
  - [    12.008244327135170,     0.000000000000000,     0.000000000000000 ] # a
  - [    -4.002747941104080,    11.321481370932226,     0.000000000000000 ] # b
  - [    -4.002748264484334,    -5.660740694722293,     9.804690392508849 ] # c
  points:
  - symbol: Li # 1
    coordinates: [  0.000000000000000,  0.000000000000000,  0.000000000000000 ]
    mass: 6.940000
    reduced_to: 1
  - symbol: Li # 2
    coordinates: [  0.250000000000000,  0.000000000000000,  0.000000000000000 ]
    mass: 6.940000
    reduced_to: 1
  - symbol: Li # 3
    coordinates: [  0.500000000000000,  0.000000000000000,  0.000000000000000 ]
    mass: 6.940000
    reduced_to: 1
  - symbol: Li # 4
    coordinates: [  0.750000000000000,  0.000000000000000,  0.000000000000000 ]
    mass: 6.940000
    reduced_to: 1
  - symbol: Li # 5
    coordinates: [  0.000000000000000,  0.250000000000000,  0.000000000000000 ]
    mass: 6.940000
    reduced_to: 1
  - symbol: Li # 6
    coordinates: [  0.250000000000000,  0.250000000000000,  0.000000000000000 ]
    mass: 6.940000
    reduced_to: 1
  - symbol: Li # 7
    coordinates: [  0.500000000000000,  0.250000000000000,  0.000000000000000 ]
    mass: 6.940000
    reduced_to: 1
  - symbol: Li # 8
    coordinates: [  0.750000000000000,  0.250000000000000,  0.000000000000000 ]
    mass: 6.940000
    reduced_to: 1
  - symbol: Li # 9
    coordinates: [  0.000000000000000,  0.500000000000000,  0.000000000000000 ]
    mass: 6.940000
    reduced_to: 1
  - symbol: Li # 10
    coordinates: [  0.250000000000000,  0.500000000000000,  0.000000000000000 ]
    mass: 6.940000
    reduced_to: 1
  - symbol: Li # 11
    coordinates: [  0.500000000000000,  0.500000000000000,  0.000000000000000 ]
    mass: 6.940000
    reduced_to: 1
  - symbol: Li # 12
    coordinates: [  0.750000000000000,  0.500000000000000,  0.000000000000000 ]
    mass: 6.940000
    reduced_to: 1
  - symbol: Li # 13
    coordinates: [  0.000000000000000,  0.750000000000000,  0.000000000000000 ]
    mass: 6.940000
    reduced_to: 1
  - symbol: Li # 14
    coordinates: [  0.250000000000000,  0.750000000000000,  0.000000000000000 ]
    mass: 6.940000
    reduced_to: 1
  - symbol: Li # 15
    coordinates: [  0.500000000000000,  0.750000000000000,  0.000000000000000 ]
    mass: 6.940000
    reduced_to: 1
  - symbol: Li # 16
    coordinates: [  0.750000000000000,  0.750000000000000,  0.000000000000000 ]
    mass: 6.940000
    reduced_to: 1
  - symbol: Li # 17
    coordinates: [  0.000000000000000,  0.000000000000000,  0.250000000000000 ]
    mass: 6.940000
    reduced_to: 1
  - symbol: Li # 18
    coordinates: [  0.250000000000000,  0.000000000000000,  0.250000000000000 ]
    mass: 6.940000
    reduced_to: 1
  - symbol: Li # 19
    coordinates: [  0.500000000000000,  0.000000000000000,  0.250000000000000 ]
    mass: 6.940000
    reduced_to: 1
  - symbol: Li # 20
    coordinates: [  0.750000000000000,  0.000000000000000,  0.250000000000000 ]
    mass: 6.940000
    reduced_to: 1
  - symbol: Li # 21
    coordinates: [  0.000000000000000,  0.250000000000000,  0.250000000000000 ]
    mass: 6.940000
    reduced_to: 1
  - symbol: Li # 22
    coordinates: [  0.250000000000000,  0.250000000000000,  0.250000000000000 ]
    mass: 6.940000
    reduced_to: 1
  - symbol: Li # 23
    coordinates: [  0.500000000000000,  0.250000000000000,  0.250000000000000 ]
    mass: 6.940000
    reduced_to: 1
  - symbol: Li # 24
    coordinates: [  0.750000000000000,  0.250000000000000,  0.250000000000000 ]
    mass: 6.940000
    reduced_to: 1
  - symbol: Li # 25
    coordinates: [  0.000000000000000,  0.500000000000000,  0.250000000000000 ]
    mass: 6.940000
    reduced_to: 1
  - symbol: Li # 26
    coordinates: [  0.250000000000000,  0.500000000000000,  0.250000000000000 ]
    mass: 6.940000
    reduced_to: 1
  - symbol: Li # 27
    coordinates: [  0.500000000000000,  0.500000000000000,  0.250000000000000 ]
    mass: 6.940000
    reduced_to: 1
  - symbol: Li # 28
    coordinates: [  0.750000000000000,  0.500000000000000,  0.250000000000000 ]
    mass: 6.940000
    reduced_to: 1
  - symbol: Li # 29
    coordinates: [  0.000000000000000,  0.750000000000000,  0.250000000000000 ]
    mass: 6.940000
    reduced_to: 1
  - symbol: Li # 30
    coordinates: [  0.250000000000000,  0.750000000000000,  0.250000000000000 ]
    mass: 6.940000
    reduced_to: 1
  - symbol: Li # 31
    coordinates: [  0.500000000000000,  0.750000000000000,  0.250000000000000 ]
    mass: 6.940000
    reduced_to: 1
  - symbol: Li # 32
    coordinates: [  0.750000000000000,  0.750000000000000,  0.250000000000000 ]
    mass: 6.940000
    reduced_to: 1
  - symbol: Li # 33
    coordinates: [  0.000000000000000,  0.000000000000000,  0.500000000000000 ]
    mass: 6.940000
    reduced_to: 1
  - symbol: Li # 34
    coordinates: [  0.250000000000000,  0.000000000000000,  0.500000000000000 ]
    mass: 6.940000
    reduced_to: 1
  - symbol: Li # 35
    coordinates: [  0.500000000000000,  0.000000000000000,  0.500000000000000 ]
    mass: 6.940000
    reduced_to: 1
  - symbol: Li # 36
    coordinates: [  0.750000000000000,  0.000000000000000,  0.500000000000000 ]
    mass: 6.940000
    reduced_to: 1
  - symbol: Li # 37
    coordinates: [  0.000000000000000,  0.250000000000000,  0.500000000000000 ]
    mass: 6.940000
    reduced_to: 1
  - symbol: Li # 38
    coordinates: [  0.250000000000000,  0.250000000000000,  0.500000000000000 ]
    mass: 6.940000
    reduced_to: 1
  - symbol: Li # 39
    coordinates: [  0.500000000000000,  0.250000000000000,  0.500000000000000 ]
    mass: 6.940000
    reduced_to: 1
  - symbol: Li # 40
    coordinates: [  0.750000000000000,  0.250000000000000,  0.500000000000000 ]
    mass: 6.940000
    reduced_to: 1
  - symbol: Li # 41
    coordinates: [  0.000000000000000,  0.500000000000000,  0.500000000000000 ]
    mass: 6.940000
    reduced_to: 1
  - symbol: Li # 42
    coordinates: [  0.250000000000000,  0.500000000000000,  0.500000000000000 ]
    mass: 6.940000
    reduced_to: 1
  - symbol: Li # 43
    coordinates: [  0.500000000000000,  0.500000000000000,  0.500000000000000 ]
    mass: 6.940000
    reduced_to: 1
  - symbol: Li # 44
    coordinates: [  0.750000000000000,  0.500000000000000,  0.500000000000000 ]
    mass: 6.940000
    reduced_to: 1
  - symbol: Li # 45
    coordinates: [  0.000000000000000,  0.750000000000000,  0.500000000000000 ]
    mass: 6.940000
    reduced_to: 1
  - symbol: Li # 46
    coordinates: [  0.250000000000000,  0.750000000000000,  0.500000000000000 ]
    mass: 6.940000
    reduced_to: 1
  - symbol: Li # 47
    coordinates: [  0.500000000000000,  0.750000000000000,  0.500000000000000 ]
    mass: 6.940000
    reduced_to: 1
  - symbol: Li # 48
    coordinates: [  0.750000000000000,  0.750000000000000,  0.500000000000000 ]
    mass: 6.940000
    reduced_to: 1
  - symbol: Li # 49
    coordinates: [  0.000000000000000,  0.000000000000000,  0.750000000000000 ]
    mass: 6.940000
    reduced_to: 1
  - symbol: Li # 50
    coordinates: [  0.250000000000000,  0.000000000000000,  0.750000000000000 ]
    mass: 6.940000
    reduced_to: 1
  - symbol: Li # 51
    coordinates: [  0.500000000000000,  0.000000000000000,  0.750000000000000 ]
    mass: 6.940000
    reduced_to: 1
  - symbol: Li # 52
    coordinates: [  0.750000000000000,  0.000000000000000,  0.750000000000000 ]
    mass: 6.940000
    reduced_to: 1
  - symbol: Li # 53
    coordinates: [  0.000000000000000,  0.250000000000000,  0.750000000000000 ]
    mass: 6.940000
    reduced_to: 1
  - symbol: Li # 54
    coordinates: [  0.250000000000000,  0.250000000000000,  0.750000000000000 ]
    mass: 6.940000
    reduced_to: 1
  - symbol: Li # 55
    coordinates: [  0.500000000000000,  0.250000000000000,  0.750000000000000 ]
    mass: 6.940000
    reduced_to: 1
  - symbol: Li # 56
    coordinates: [  0.750000000000000,  0.250000000000000,  0.750000000000000 ]
    mass: 6.940000
    reduced_to: 1
  - symbol: Li # 57
    coordinates: [  0.000000000000000,  0.500000000000000,  0.750000000000000 ]
    mass: 6.940000
    reduced_to: 1
  - symbol: Li # 58
    coordinates: [  0.250000000000000,  0.500000000000000,  0.750000000000000 ]
    mass: 6.940000
    reduced_to: 1
  - symbol: Li # 59
    coordinates: [  0.500000000000000,  0.500000000000000,  0.750000000000000 ]
    mass: 6.940000
    reduced_to: 1
  - symbol: Li # 60
    coordinates: [  0.750000000000000,  0.500000000000000,  0.750000000000000 ]
    mass: 6.940000
    reduced_to: 1
  - symbol: Li # 61
    coordinates: [  0.000000000000000,  0.750000000000000,  0.750000000000000 ]
    mass: 6.940000
    reduced_to: 1
  - symbol: Li # 62
    coordinates: [  0.250000000000000,  0.750000000000000,  0.750000000000000 ]
    mass: 6.940000
    reduced_to: 1
  - symbol: Li # 63
    coordinates: [  0.500000000000000,  0.750000000000000,  0.750000000000000 ]
    mass: 6.940000
    reduced_to: 1
  - symbol: Li # 64
    coordinates: [  0.750000000000000,  0.750000000000000,  0.750000000000000 ]
    mass: 6.940000
    reduced_to: 1

displacements:
- atom:    1
  displacement:
    [   0.0100000000000000,  0.0000000000000000,  0.0000000000000000 ]
  forces:
  - [  -0.0103677231818438, -0.0000004433095455, -0.0000000305590220 ]
  - [   0.0042516300454736, -0.0000001360313036,  0.0000000351756171 ]
  - [   0.0000056950375438, -0.0000000889122020,  0.0000001715379767 ]
  - [   0.0041487338021398, -0.0000001015141606,  0.0000000776017259 ]
  - [   0.0002387038839515, -0.0014009490842000,  0.0000000976724550 ]
  - [   0.0004450392734725,  0.0005020501557738,  0.0000000369800546 ]
  - [   0.0000021248752091, -0.0000020218431018,  0.0000001416192390 ]
  - [  -0.0003498611622490,  0.0002792749728542,  0.0000000991030902 ]
  - [  -0.0000077019067248, -0.0000050474191085,  0.0000001919615897 ]
  - [   0.0000121388075058,  0.0000009528594092,  0.0000001742155291 ]
  - [  -0.0000026599559533, -0.0000007658964023,  0.0000000894906407 ]
  - [   0.0000118362440844,  0.0000016165431589,  0.0000002921183295 ]
  - [   0.0002296371385455, -0.0014022849500179,  0.0000002805290933 ]
  - [  -0.0003723514964804,  0.0002967434120364,  0.0000004199100658 ]
  - [   0.0000031931558624, -0.0000009281793609,  0.0000003172676770 ]
  - [   0.0004455940797925,  0.0004961917293258,  0.0000003403765731 ]
  - [   0.0002391595626250,  0.0007001367630437, -0.0012135838624090 ]
  - [   0.0004449626430869, -0.0002512573264539,  0.0004344968183432 ]
  - [   0.0000020732049961,  0.0000007856718867, -0.0000019618892111 ]
  - [  -0.0003500213497318, -0.0001398251770297,  0.0002417073119432 ]
  - [   0.0004451465792954, -0.0002477172529325, -0.0004292950034142 ]
  - [   0.0002299318875885,  0.0007011668640189,  0.0012148465029895 ]
  - [  -0.0003717577783391, -0.0001481583894929, -0.0002565681934357 ]
  - [   0.0000028124777600,  0.0000005873013151,  0.0000011554220691 ]
  - [   0.0000001301523298, -0.0000001576186150, -0.0000059676212913 ]
  - [  -0.0000029241150514, -0.0000160151321325,  0.0000300874817185 ]
  - [  -0.0000000511570306,  0.0000056606440921, -0.0000030307674024 ]
  - [   0.0000021067173748,  0.0000002973905282, -0.0000000341096893 ]
  - [  -0.0000032399871088, -0.0000176651301445, -0.0000291891628876 ]
  - [   0.0000000278082553,  0.0000000767986421,  0.0000062119215727 ]
  - [   0.0000018351205426,  0.0000000210648778,  0.0000002396409400 ]
  - [   0.0000004688677109,  0.0000053742778618,  0.0000031217932701 ]
  - [  -0.0000078760131146,  0.0000023616012186, -0.0000040671438910 ]
  - [   0.0000119726682897, -0.0000005988986231,  0.0000012865639292 ]
  - [  -0.0000027948965453,  0.0000002386514097, -0.0000002346932888 ]
  - [   0.0000124510488604, -0.0000009060604498,  0.0000017759739421 ]
  - [   0.0000000010477379, -0.0000048928777687, -0.0000026103225537 ]
  - [  -0.0000028525123525,  0.0000343156862073,  0.0000013654935174 ]
  - [  -0.0000000335276127, -0.0000052515242714,  0.0000036974088289 ]
  - [   0.0000020518200472, -0.0000000384170562,  0.0000005841720849 ]
  - [  -0.0000023072352633,  0.0000002229062375,  0.0000006454065442 ]
  - [   0.0000116464216262, -0.0000010011135601, -0.0000011920346878 ]
  - [  -0.0000078510493040,  0.0000022742897272,  0.0000045699998736 ]
  - [   0.0000119410688058, -0.0000008347560652, -0.0000009312643670 ]
  - [  -0.0000003173481673, -0.0000050822563935, -0.0000027774949558 ]
  - [   0.0000021057203412, -0.0000002337619662,  0.0000001303851604 ]
  - [  -0.0000001249136403, -0.0000050292001106,  0.0000034194090404 ]
  - [  -0.0000027408823371,  0.0000343713909388, -0.0000003259629011 ]
  - [   0.0002297786995769,  0.0007009180262685, -0.0012153869029135 ]
  - [  -0.0003724597627297, -0.0001484623353463,  0.0002562815498095 ]
  - [   0.0000035531120375,  0.0000003425157047, -0.0000014719553292 ]
  - [   0.0004451777786016, -0.0002481635019649,  0.0004289915377740 ]
  - [  -0.0000032164389268, -0.0000162792857736, -0.0000306629590341 ]
  - [   0.0000000940635800,  0.0000055097043514,  0.0000024649129955 ]
  - [   0.0000018915161490,  0.0000004507601261, -0.0000005485280781 ]
  - [   0.0000002244487405, -0.0000001914449967,  0.0000053358708101 ]
  - [  -0.0000002030283213, -0.0000003961613402, -0.0000066328893809 ]
  - [   0.0000018449500203, -0.0000003131281119, -0.0000009488703654 ]
  - [   0.0000000465661287,  0.0000048450292525, -0.0000035719654079 ]
  - [  -0.0000026896595955, -0.0000179649687198,  0.0000286470458377 ]
  - [   0.0004447419196367, -0.0002505643642507, -0.0004350590752438 ]
  - [   0.0000023087486625,  0.0000011186348274,  0.0000013408516679 ]
  - [  -0.0003502167528495, -0.0001391535624862, -0.0002423334663035 ]
  - [   0.0002391776069999,  0.0007010373519734,  0.0012132499832660 ]

force_constants:
  format: "full"
  shape: [ 64, 64 ]
  elements:
  - # (1, 1)
    - [     1.036772340883712,    -0.000000000128772,    -0.000000000059849 ]
    - [    -0.000000000128772,     1.036772340826651,     0.000000000144568 ]
    - [    -0.000000000059849,     0.000000000144568,     1.036772340971463 ]
  - # (1, 2)
    - [    -0.420000602042455,     0.000000003164431,    -0.000000001682202 ]
    - [     0.000000003181347,     0.026123723164992,     0.000000000044754 ]
    - [    -0.000000001559410,     0.000000000177180,     0.026123723368138 ]
  - # (1, 3)
    - [    -0.000581772071224,    -0.000000000151622,    -0.000000000059723 ]
    - [    -0.000000000113627,     0.000955942386510,     0.000000000019536 ]
    - [     0.000000000091106,     0.000000000130941,     0.000955942587320 ]
  - # (1, 4)
    - [    -0.420000602042455,     0.000000003164431,    -0.000000001682202 ]
    - [     0.000000003181347,     0.026123723164992,     0.000000000044754 ]
    - [    -0.000000001559410,     0.000000000177180,     0.026123723368138 ]
  - # (1, 5)
    - [    -0.023445645280418,     0.140203349440970,    -0.000000000204406 ]
    - [     0.140203346240561,    -0.370431234129076,     0.000000000485674 ]
    - [     0.000000001061083,    -0.000000002615611,     0.026123723424353 ]
  - # (1, 6)
    - [    -0.044511016009924,    -0.049890809628228,    -0.000000000233558 ]
    - [    -0.049890809407760,    -0.079789144033900,    -0.000000000188100 ]
    - [    -0.000000000118151,    -0.000000000014851,    -0.009232885741453 ]
  - # (1, 7)
    - [    -0.000272770189659,     0.000164639507779,    -0.000000000031729 ]
    - [     0.000164639684071,    -0.001203660541235,     0.000000000064868 ]
    - [     0.000000000008381,     0.000000000105794,     0.000372563523628 ]
  - # (1, 8)
    - [     0.036119906846470,    -0.028773475118676,     0.000000000024863 ]
    - [    -0.028773474904633,     0.015773988562631,    -0.000000000036452 ]
    - [     0.000000000156897,     0.000000000068000,     0.002714469987568 ]
  - # (1, 9)
    - [     0.000785085349540,     0.000483256943794,    -0.000000000002962 ]
    - [     0.000483257056234,    -0.000410914930152,     0.000000000019846 ]
    - [     0.000000000112417,    -0.000000000025460,     0.000955942490716 ]
  - # (1, 10)
    - [    -0.001203710779128,    -0.000164497706369,    -0.000000000123854 ]
    - [    -0.000164497567457,    -0.000272720007911,    -0.000000000045130 ]
    - [     0.000000000002326,     0.000000000155967,     0.000372563510751 ]
  - # (1, 11)
    - [     0.000258758916364,     0.000058628675982,    -0.000000000021204 ]
    - [     0.000058628806996,     0.000300215726711,     0.000000000023473 ]
    - [     0.000000000058170,     0.000000000122223,     0.000217302113023 ]
  - # (1, 12)
    - [    -0.001203710779128,    -0.000164497706369,    -0.000000000123854 ]
    - [    -0.000164497567457,    -0.000272720007911,    -0.000000000045130 ]
    - [     0.000000000002326,     0.000000000155967,     0.000372563510751 ]
  - # (1, 13)
    - [    -0.023445645280418,     0.140203349440970,    -0.000000000204406 ]
    - [     0.140203346240561,    -0.370431234129076,     0.000000000485674 ]
    - [     0.000000001061083,    -0.000000002615611,     0.026123723424353 ]
  - # (1, 14)
    - [     0.036119906846470,    -0.028773475118676,     0.000000000024863 ]
    - [    -0.028773474904633,     0.015773988562631,    -0.000000000036452 ]
    - [     0.000000000156897,     0.000000000068000,     0.002714469987568 ]
  - # (1, 15)
    - [    -0.000272770189659,     0.000164639507779,    -0.000000000031729 ]
    - [     0.000164639684071,    -0.001203660541235,     0.000000000064868 ]
    - [     0.000000000008381,     0.000000000105794,     0.000372563523628 ]
  - # (1, 16)
    - [    -0.044511016009924,    -0.049890809628228,    -0.000000000233558 ]
    - [    -0.049890809407760,    -0.079789144033900,    -0.000000000188100 ]
    - [    -0.000000000118151,    -0.000000000014851,    -0.009232885741453 ]
  - # (1, 17)
    - [    -0.023445648109551,    -0.070101675868445,     0.121419664265252 ]
    - [    -0.070101675419820,    -0.073015014490642,     0.171713331197965 ]
    - [     0.121419663902851,     0.171713331463045,    -0.271292491733731 ]
  - # (1, 18)
    - [    -0.044511015258445,     0.024945405137547,    -0.043206708971832 ]
    - [     0.024945404870904,    -0.026871950990613,     0.030551757200270 ]
    - [    -0.043206708897615,     0.030551757448870,    -0.062150081272233 ]
  - # (1, 19)
    - [    -0.000272770208214,    -0.000082319955844,     0.000142582034493 ]
    - [    -0.000082319819323,    -0.000021492497018,     0.000682525074364 ]
    - [     0.000142581989278,     0.000682525136781,    -0.000809604508176 ]
  - # (1, 20)
    - [     0.036119907292577,     0.014386737024982,    -0.024918560028281 ]
    - [     0.014386736891529,     0.005979349127870,    -0.005654936782211 ]
    - [    -0.024918559976523,    -0.005654936828464,     0.012509108203152 ]
  - # (1, 21)
    - [    -0.044511015413080,     0.024945404911544,     0.043206708241016 ]
    - [     0.024945405455859,    -0.026871951209616,    -0.030551757262116 ]
    - [     0.043206708603565,    -0.030551756887743,    -0.062150080468308 ]
  - # (1, 22)
    - [    -0.023445645290192,    -0.070101673012111,    -0.121419659802560 ]
    - [    -0.070101674546926,    -0.073015014690721,    -0.171713332202546 ]
    - [    -0.121419663328682,    -0.171713333017485,    -0.271292496476429 ]
  - # (1, 23)
    - [     0.036119907064633,     0.014386736917275,     0.024918560019122 ]
    - [     0.014386736917033,     0.005979349074230,     0.005654936908247 ]
    - [     0.024918560363906,     0.005654937278858,     0.012509108861087 ]
  - # (1, 24)
    - [    -0.000272770171883,    -0.000082319962519,    -0.000142582135709 ]
    - [    -0.000082319846846,    -0.000021492539191,    -0.000682524984591 ]
    - [    -0.000142582099235,    -0.000682524841553,    -0.000809604523366 ]
  - # (1, 25)
    - [     0.000002329018828,     0.000014942182867,     0.000595963307786 ]
    - [     0.000014942415061,    -0.000296591738107,     0.000361936040072 ]
    - [     0.000595963349323,     0.000361936176997,    -0.000809604482544 ]
  - # (1, 26)
    - [     0.000285669541833,     0.001717421001049,    -0.002974660912626 ]
    - [     0.001717421372431,     0.041813586688249,     0.025378422833953 ]
    - [    -0.002974660675559,     0.025378423134106,     0.012509108628363 ]
  - # (1, 27)
    - [     0.000002329018678,    -0.000523590872254,     0.000285041104385 ]
    - [    -0.000523590590136,    -0.000367905581070,     0.000403109108011 ]
    - [     0.000285041169367,     0.000403109201215,    -0.000738290644973 ]
  - # (1, 28)
    - [    -0.000197241476678,    -0.000009033344364,     0.000015646218081 ]
    - [    -0.000009033231444,    -0.000203629007348,    -0.000011063565152 ]
    - [     0.000015646270426,    -0.000011063486325,    -0.000190853925417 ]
  - # (1, 29)
    - [     0.000285669642345,     0.001717421076732,     0.002974660600350 ]
    - [     0.001717421629617,     0.041813586699794,    -0.025378422701692 ]
    - [     0.002974660503983,    -0.025378422640499,     0.012509108508841 ]
  - # (1, 30)
    - [     0.000002328933875,     0.000014942404922,    -0.000595963473843 ]
    - [     0.000014942483616,    -0.000296591692502,    -0.000361936017382 ]
    - [    -0.000595963444153,    -0.000361935866727,    -0.000809604468756 ]
  - # (1, 31)
    - [    -0.000197241413317,    -0.000009033608388,    -0.000015646249663 ]
    - [    -0.000009033431767,    -0.000203629074390,     0.000011063565394 ]
    - [    -0.000015646164926,     0.000011063685877,    -0.000190853772789 ]
  - # (1, 32)
    - [     0.000002328950796,    -0.000523590733705,    -0.000285041253247 ]
    - [    -0.000523590676423,    -0.000367905492982,    -0.000403109091487 ]
    - [    -0.000285041164859,    -0.000403108970696,    -0.000738290679804 ]
  - # (1, 33)
    - [     0.000785085283849,    -0.000241628784560,     0.000418512922970 ]
    - [    -0.000241628595988,     0.000614228077788,     0.000591866625131 ]
    - [     0.000418512890614,     0.000591866686347,    -0.000069200445867 ]
  - # (1, 34)
    - [    -0.001203710746039,     0.000082248740083,    -0.000142459190033 ]
    - [     0.000082248782279,     0.000211242541228,     0.000279416034914 ]
    - [    -0.000142459084140,     0.000279416123714,    -0.000111399044460 ]
  - # (1, 35)
    - [     0.000258758911708,    -0.000029314577169,     0.000050773958257 ]
    - [    -0.000029314463118,     0.000238030464004,    -0.000035902656497 ]
    - [     0.000050774016484,    -0.000035902569969,     0.000279487383173 ]
  - # (1, 36)
    - [    -0.001203710746039,     0.000082248740083,    -0.000142459190033 ]
    - [     0.000082248782279,     0.000211242541228,     0.000279416034914 ]
    - [    -0.000142459084140,     0.000279416123714,    -0.000111399044460 ]
  - # (1, 37)
    - [     0.000002328915892,     0.000508648085222,     0.000310922138782 ]
    - [     0.000508648242521,    -0.000994797154787,    -0.000041173008120 ]
    - [     0.000310922249598,    -0.000041172946095,    -0.000111399004460 ]
  - # (1, 38)
    - [     0.000285669535781,    -0.003434842543632,    -0.000000000208951 ]
    - [    -0.003434842345491,    -0.002143130610396,     0.000000000041938 ]
    - [    -0.000000000212632,     0.000000000143063,     0.056465826409074 ]
  - # (1, 39)
    - [     0.000002329037004,     0.000508648129655,    -0.000310922320833 ]
    - [     0.000508648283043,    -0.000994797118537,     0.000041173164736 ]
    - [    -0.000310922205919,     0.000041173168111,    -0.000111399140975 ]
  - # (1, 40)
    - [    -0.000197241396933,     0.000018066578498,     0.000000000023347 ]
    - [     0.000018066754672,    -0.000184466330714,    -0.000000000079055 ]
    - [     0.000000000105843,     0.000000000047651,    -0.000210016511535 ]
  - # (1, 41)
    - [     0.000258758936505,    -0.000029314580984,    -0.000050774113076 ]
    - [    -0.000029314445760,     0.000238030446877,     0.000035902666675 ]
    - [    -0.000050774034591,     0.000035902759985,     0.000279487374224 ]
  - # (1, 42)
    - [    -0.001203710777003,     0.000082248647022,     0.000142458948520 ]
    - [     0.000082248801205,     0.000211242520316,    -0.000279415879831 ]
    - [     0.000142459083244,    -0.000279415758071,    -0.000111399003546 ]
  - # (1, 43)
    - [     0.000785085317960,    -0.000241628588746,    -0.000418512829749 ]
    - [    -0.000241628551413,     0.000614228104503,    -0.000591866685317 ]
    - [    -0.000418512850888,    -0.000591866530857,    -0.000069200518057 ]
  - # (1, 44)
    - [    -0.001203710777003,     0.000082248647022,     0.000142458948520 ]
    - [     0.000082248801205,     0.000211242520316,    -0.000279415879831 ]
    - [     0.000142459083244,    -0.000279415758071,    -0.000111399003546 ]
  - # (1, 45)
    - [     0.000002328915892,     0.000508648085222,     0.000310922138782 ]
    - [     0.000508648242521,    -0.000994797154787,    -0.000041173008120 ]
    - [     0.000310922249598,    -0.000041172946095,    -0.000111399004460 ]
  - # (1, 46)
    - [    -0.000197241396933,     0.000018066578498,     0.000000000023347 ]
    - [     0.000018066754672,    -0.000184466330714,    -0.000000000079055 ]
    - [     0.000000000105843,     0.000000000047651,    -0.000210016511535 ]
  - # (1, 47)
    - [     0.000002329037004,     0.000508648129655,    -0.000310922320833 ]
    - [     0.000508648283043,    -0.000994797118537,     0.000041173164736 ]
    - [    -0.000310922205919,     0.000041173168111,    -0.000111399140975 ]
  - # (1, 48)
    - [     0.000285669535781,    -0.003434842543632,    -0.000000000208951 ]
    - [    -0.003434842345491,    -0.002143130610396,     0.000000000041938 ]
    - [    -0.000000000212632,     0.000000000143063,     0.056465826409074 ]
  - # (1, 49)
    - [    -0.023445648109551,    -0.070101675868445,     0.121419664265252 ]
    - [    -0.070101675419820,    -0.073015014490642,     0.171713331197965 ]
    - [     0.121419663902851,     0.171713331463045,    -0.271292491733731 ]
  - # (1, 50)
    - [     0.036119907292577,     0.014386737024982,    -0.024918560028281 ]
    - [     0.014386736891529,     0.005979349127870,    -0.005654936782211 ]
    - [    -0.024918559976523,    -0.005654936828464,     0.012509108203152 ]
  - # (1, 51)
    - [    -0.000272770208214,    -0.000082319955844,     0.000142582034493 ]
    - [    -0.000082319819323,    -0.000021492497018,     0.000682525074364 ]
    - [     0.000142581989278,     0.000682525136781,    -0.000809604508176 ]
  - # (1, 52)
    - [    -0.044511015258445,     0.024945405137547,    -0.043206708971832 ]
    - [     0.024945404870904,    -0.026871950990613,     0.030551757200270 ]
    - [    -0.043206708897615,     0.030551757448870,    -0.062150081272233 ]
  - # (1, 53)
    - [     0.000285669642345,     0.001717421076732,     0.002974660600350 ]
    - [     0.001717421629617,     0.041813586699794,    -0.025378422701692 ]
    - [     0.002974660503983,    -0.025378422640499,     0.012509108508841 ]
  - # (1, 54)
    - [     0.000002328950796,    -0.000523590733705,    -0.000285041253247 ]
    - [    -0.000523590676423,    -0.000367905492982,    -0.000403109091487 ]
    - [    -0.000285041164859,    -0.000403108970696,    -0.000738290679804 ]
  - # (1, 55)
    - [    -0.000197241413317,    -0.000009033608388,    -0.000015646249663 ]
    - [    -0.000009033431767,    -0.000203629074390,     0.000011063565394 ]
    - [    -0.000015646164926,     0.000011063685877,    -0.000190853772789 ]
  - # (1, 56)
    - [     0.000002328933875,     0.000014942404922,    -0.000595963473843 ]
    - [     0.000014942483616,    -0.000296591692502,    -0.000361936017382 ]
    - [    -0.000595963444153,    -0.000361935866727,    -0.000809604468756 ]
  - # (1, 57)
    - [     0.000002329018828,     0.000014942182867,     0.000595963307786 ]
    - [     0.000014942415061,    -0.000296591738107,     0.000361936040072 ]
    - [     0.000595963349323,     0.000361936176997,    -0.000809604482544 ]
  - # (1, 58)
    - [    -0.000197241476678,    -0.000009033344364,     0.000015646218081 ]
    - [    -0.000009033231444,    -0.000203629007348,    -0.000011063565152 ]
    - [     0.000015646270426,    -0.000011063486325,    -0.000190853925417 ]
  - # (1, 59)
    - [     0.000002329018678,    -0.000523590872254,     0.000285041104385 ]
    - [    -0.000523590590136,    -0.000367905581070,     0.000403109108011 ]
    - [     0.000285041169367,     0.000403109201215,    -0.000738290644973 ]
  - # (1, 60)