# Thermal properties / unit cell (natom)

unit:
  temperature:   K
  free_energy:   kJ/mol
  entropy:       J/K/mol
  heat_capacity: J/K/mol

natom: 1    
cutoff_frequency: 0.00000
num_modes: 206763
num_integrated_modes: 206761

zero_point_energy:       3.3501996

thermal_properties:
- temperature:         0.0000000
  free_energy:         3.3501996
  entropy:             0.0000000
  heat_capacity:       0.0000000
  energy:              3.3501996

- temperature:        10.0000000
  free_energy:         3.3501105
  entropy:             0.0308813
  heat_capacity:       0.0910803
  energy:              3.3504193

- temperature:        20.0000000
  free_energy:         3.3489070
  entropy:             0.2619336
  heat_capacity:       0.7975156
  energy:              3.3541457

- temperature:        30.0000000
  free_energy:         3.3436966
  entropy:             0.8375938
  heat_capacity:       2.2255460
  energy:              3.3688245

- temperature:        40.0000000
  free_energy:         3.3311415
  entropy:             1.7167473
  heat_capacity:       4.0079267
  energy:              3.3998114

- temperature:        50.0000000
  free_energy:         3.3086305
  entropy:             2.8159283
  heat_capacity:       5.9260928
  energy:              3.4494270

- temperature:        60.0000000
  free_energy:         3.2743165
  entropy:             4.0675009
  heat_capacity:       7.8552008
  energy:              3.5183666

- temperature:        70.0000000
  free_energy:         3.2269495
  entropy:             5.4187296
  heat_capacity:       9.7042333
  energy:              3.6062606

- temperature:        80.0000000
  free_energy:         3.1657500
  entropy:             6.8278660
  heat_capacity:      11.4126987
  energy:              3.7119793

- temperature:        90.0000000
  free_energy:         3.0903078
  entropy:             8.2626048
  heat_capacity:      12.9502429
  energy:              3.8339422

- temperature:       100.0000000
  free_energy:         3.0004933
  entropy:             9.6989595
  heat_capacity:      14.3097952
  energy:              3.9703892

- temperature:       110.0000000
  free_energy:         2.8963806
  entropy:            11.1198962
  heat_capacity:      15.4989044
  energy:              4.1195692

- temperature:       120.0000000
  free_energy:         2.7781857
  entropy:            12.5138622
  heat_capacity:      16.5326572
  energy:              4.2798492

- temperature:       130.0000000
  free_energy:         2.6462183
  entropy:            13.8734297
  heat_capacity:      17.4289729
  energy:              4.4497642

- temperature:       140.0000000
  free_energy:         2.5008468
  entropy:            15.1941713
  heat_capacity:      18.2058792
  energy:              4.6280307

- temperature:       150.0000000
  free_energy:         2.3424722
  entropy:            16.4737842
  heat_capacity:      18.8801285
  energy:              4.8135398

- temperature:       160.0000000
  free_energy:         2.1715110
  entropy:            17.7114373
  heat_capacity:      19.4666226
  energy:              5.0053410

- temperature:       170.0000000
  free_energy:         1.9883828
  entropy:            18.9072954
  heat_capacity:      19.9782840
  energy:              5.2026230

- temperature:       180.0000000
  free_energy:         1.7935018
  entropy:            20.0621804
  heat_capacity:      20.4261513
  energy:              5.4046942

- temperature:       190.0000000
  free_energy:         1.5872717
  entropy:            21.1773318
  heat_capacity:      20.8195726
  energy:              5.6109647

- temperature:       200.0000000
  free_energy:         1.3700826
  entropy:            22.2542399
  heat_capacity:      21.1664287
  energy:              5.8209306

- temperature:       210.0000000
  free_energy:         1.1423090
  entropy:            23.2945303
  heat_capacity:      21.4733511
  energy:              6.0341603

- temperature:       220.0000000
  free_energy:         0.9043085
  entropy:            24.2998852
  heat_capacity:      21.7459199
  energy:              6.2502832

- temperature:       230.0000000
  free_energy:         0.6564221
  entropy:            25.2719908
  heat_capacity:      21.9888362
  energy:              6.4689799

- temperature:       240.0000000
  free_energy:         0.3989740
  entropy:            26.2125018
  heat_capacity:      22.2060685
  energy:              6.6899744

- temperature:       250.0000000
  free_energy:         0.1322720
  entropy:            27.1230198
  heat_capacity:      22.4009755
  energy:              6.9130270

- temperature:       260.0000000
  free_energy:        -0.1433916
  entropy:            28.0050793
  heat_capacity:      22.5764085
  energy:              7.1379290

- temperature:       270.0000000
  free_energy:        -0.4277396
  entropy:            28.8601405
  heat_capacity:      22.7347955
  energy:              7.3644983

- temperature:       280.0000000
  free_energy:        -0.7205090
  entropy:            29.6895860
  heat_capacity:      22.8782107
  energy:              7.5925751

- temperature:       290.0000000
  free_energy:        -1.0214503
  entropy:            30.4947203
  heat_capacity:      23.0084325
  energy:              7.8220186

- temperature:       300.0000000
  free_energy:        -1.3303265
  entropy:            31.2767712
  heat_capacity:      23.1269905
  energy:              8.0527049

- temperature:       310.0000000
  free_energy:        -1.6469126
  entropy:            32.0368922
  heat_capacity:      23.2352050
  energy:              8.2845240

- temperature:       320.0000000
  free_energy:        -1.9709948
  entropy:            32.7761661
  heat_capacity:      23.3342190
  energy:              8.5173783

- temperature:       330.0000000
  free_energy:        -2.3023698
  entropy:            33.4956086
  heat_capacity:      23.4250257
  energy:              8.7511810

- temperature:       340.0000000
  free_energy:        -2.6408441
  entropy:            34.1961720
  heat_capacity:      23.5084906
  energy:              8.9858544

- temperature:       350.0000000
  free_energy:        -2.9862333
  entropy:            34.8787492
  heat_capacity:      23.5853703
  energy:              9.2213289

- temperature:       360.0000000
  free_energy:        -3.3383619
  entropy:            35.5441777
  heat_capacity:      23.6563281
  energy:              9.4575420

- temperature:       370.0000000
  free_energy:        -3.6970623
  entropy:            36.1932432
  heat_capacity:      23.7219476
  energy:              9.6944376

- temperature:       380.0000000
  free_energy:        -4.0621747
  entropy:            36.8266832
  heat_capacity:      23.7827429
  energy:              9.9319649

- temperature:       390.0000000
  free_energy:        -4.4335462
  entropy:            37.4451902
  heat_capacity:      23.8391692
  energy:             10.1700779

- temperature:       400.0000000
  free_energy:        -4.8110309
  entropy:            38.0494150
  heat_capacity:      23.8916295
  energy:             10.4087351

- temperature:       410.0000000
  free_energy:        -5.1944890
  entropy:            38.6399695
  heat_capacity:      23.9404824
  energy:             10.6478985

- temperature:       420.0000000
  free_energy:        -5.5837867
  entropy:            39.2174296
  heat_capacity:      23.9860472
  energy:             10.8875338

- temperature:       430.0000000
  free_energy:        -5.9787957
  entropy:            39.7823376
  heat_capacity:      24.0286092
  energy:             11.1276095

- temperature:       440.0000000
  free_energy:        -6.3793933
  entropy:            40.3352047
  heat_capacity:      24.0684236
  energy:             11.3680968

- temperature:       450.0000000
  free_energy:        -6.7854613
  entropy:            40.8765130
  heat_capacity:      24.1057194
  energy:             11.6089695

- temperature:       460.0000000
  free_energy:        -7.1968865
  entropy:            41.4067174
  heat_capacity:      24.1407027
  energy:             11.8502035

- temperature:       470.0000000
  free_energy:        -7.6135601
  entropy:            41.9262480
  heat_capacity:      24.1735588
  energy:             12.0917765

- temperature:       480.0000000
  free_energy:        -8.0353773
  entropy:            42.4355112
  heat_capacity:      24.2044553
  energy:             12.3336681

- temperature:       490.0000000
  free_energy:        -8.4622374
  entropy:            42.9348917
  heat_capacity:      24.2335435
  energy:             12.5758596

- temperature:       500.0000000
  free_energy:        -8.8940434
  entropy:            43.4247536
  heat_capacity:      24.2609608
  energy:             12.8183334

- temperature:       510.0000000
  free_energy:        -9.3307019
  entropy:            43.9054421
  heat_capacity:      24.2868316
  energy:             13.0610736

- temperature:       520.0000000
  free_energy:        -9.7721227
  entropy:            44.3772847
  heat_capacity:      24.3112693
  energy:             13.3040653

- temperature:       530.0000000
  free_energy:       -10.2182191
  entropy:            44.8405919
  heat_capacity:      24.3343769
  energy:             13.5472946

- temperature:       540.0000000
  free_energy:       -10.6689071
  entropy:            45.2956589
  heat_capacity:      24.3562485
  energy:             13.7907487

- temperature:       550.0000000
  free_energy:       -11.1241057
  entropy:            45.7427663
  heat_capacity:      24.3769703
  energy:             14.0344157

- temperature:       560.0000000
  free_energy:       -11.5837368
  entropy:            46.1821810
  heat_capacity:      24.3966207
  energy:             14.2782845

- temperature:       570.0000000
  free_energy:       -12.0477246
  entropy:            46.6141568
  heat_capacity:      24.4152721
  energy:             14.5223448

- temperature:       580.0000000
  free_energy:       -12.5159959
  entropy:            47.0389359
  heat_capacity:      24.4329905
  energy:             14.7665869

- temperature:       590.0000000
  free_energy:       -12.9884801
  entropy:            47.4567488
  heat_capacity:      24.4498368
  energy:             15.0110017

- temperature:       600.0000000
  free_energy:       -13.4651084
  entropy:            47.8678155
  heat_capacity:      24.4658669
  energy:             15.2555809

- temperature:       610.0000000
  free_energy:       -13.9458146
  entropy:            48.2723461
  heat_capacity:      24.4811325
  energy:             15.5003165

- temperature:       620.0000000
  free_energy:       -14.4305342
  entropy:            48.6705409
  heat_capacity:      24.4956811
  energy:             15.7452012

- temperature:       630.0000000
  free_energy:       -14.9192049
  entropy:            49.0625918
  heat_capacity:      24.5095568
  energy:             15.9902279

- temperature:       640.0000000
  free_energy:       -15.4117662
  entropy:            49.4486818
  heat_capacity:      24.5228001
  energy:             16.2353902

- temperature:       650.0000000
  free_energy:       -15.9081593
  entropy:            49.8289865
  heat_capacity:      24.5354488
  energy:             16.4806819

- temperature:       660.0000000
  free_energy:       -16.4083272
  entropy:            50.2036735
  heat_capacity:      24.5475377
  energy:             16.7260973

- temperature:       670.0000000
  free_energy:       -16.9122146
  entropy:            50.5729037
  heat_capacity:      24.5590993
  energy:             16.9716309

- temperature:       680.0000000
  free_energy:       -17.4197676
  entropy:            50.9368312
  heat_capacity:      24.5701636
  energy:             17.2172776

- temperature:       690.0000000
  free_energy:       -17.9309340
  entropy:            51.2956038
  heat_capacity:      24.5807586
  energy:             17.4630326

- temperature:       700.0000000
  free_energy:       -18.4456630
  entropy:            51.6493633
  heat_capacity:      24.5909105
  energy:             17.7088913

- temperature:       710.0000000
  free_energy:       -18.9639050
  entropy:            51.9982457
  heat_capacity:      24.6006433
  energy:             17.9548494

- temperature:       720.0000000
  free_energy:       -19.4856121
  entropy:            52.3423818
  heat_capacity:      24.6099799
  energy:             18.2009029

- temperature:       730.0000000
  free_energy:       -20.0107373
  entropy:            52.6818973
  heat_capacity:      24.6189414
  energy:             18.4470478

- temperature:       740.0000000
  free_energy:       -20.5392350
  entropy:            53.0169129
  heat_capacity:      24.6275474
  energy:             18.6932805

- temperature:       750.0000000
  free_energy:       -21.0710609
  entropy:            53.3475447
  heat_capacity:      24.6358166
  energy:             18.9395976

- temperature:       760.0000000
  free_energy:       -21.6061717
  entropy:            53.6739045
  heat_capacity:      24.6437661
  energy:             19.1859958

- temperature:       770.0000000
  free_energy:       -22.1445251
  entropy:            53.9961000
  heat_capacity:      24.6514122
  energy:             19.4324719

- temperature:       780.0000000
  free_energy:       -22.6860801
  entropy:            54.3142349
  heat_capacity:      24.6587701
  energy:             19.6790231

- temperature:       790.0000000
  free_energy:       -23.2307966
  entropy:            54.6284089
  heat_capacity:      24.6658540
  energy:             19.9256464

- temperature:       800.0000000
  free_energy:       -23.7786354
  entropy:            54.9387184
  heat_capacity:      24.6726774
  energy:             20.1723393

- temperature:       810.0000000
  free_energy:       -24.3295584
  entropy:            55.2452562
  heat_capacity:      24.6792528
  energy:             20.4190991

- temperature:       820.0000000
  free_energy:       -24.8835283
  entropy:            55.5481120
  heat_capacity:      24.6855920
  energy:             20.6659235

- temperature:       830.0000000
  free_energy:       -25.4405087
  entropy:            55.8473721
  heat_capacity:      24.6917062
  energy:             20.9128102

- temperature:       840.0000000
  free_energy:       -26.0004640
  entropy:            56.1431202
  heat_capacity:      24.6976059
  energy:             21.1597569

- temperature:       850.0000000
  free_energy:       -26.5633596
  entropy:            56.4354368
  heat_capacity:      24.7033010
  energy:             21.4067617

- temperature:       860.0000000
  free_energy:       -27.1291616
  entropy:            56.7243999
  heat_capacity:      24.7088008
  energy:             21.6538223

- temperature:       870.0000000
  free_energy:       -27.6978367
  entropy:            57.0100848
  heat_capacity:      24.7141141
  energy:             21.9009370

- temperature:       880.0000000
  free_energy:       -28.2693526
  entropy:            57.2925643
  heat_capacity:      24.7192492
  energy:             22.1481040

- temperature:       890.0000000
  free_energy:       -28.8436775
  entropy:            57.5719090
  heat_capacity:      24.7242140
  energy:             22.3953215

- temperature:       900.0000000
  free_energy:       -29.4207805
  entropy:            57.8481870
  heat_capacity:      24.7290159
  energy:             22.6425877

- temperature:       910.0000000
  free_energy:       -30.0006313
  entropy:            58.1214643
  heat_capacity:      24.7336620
  energy:             22.8899013

- temperature:       920.0000000
  free_energy:       -30.5832000
  entropy:            58.3918049
  heat_capacity:      24.7381588
  energy:             23.1372605

- temperature:       930.0000000
  free_energy:       -31.1684578
  entropy:            58.6592707
  heat_capacity:      24.7425128
  energy:             23.3846640

- temperature:       940.0000000
  free_energy:       -31.7563761
  entropy:            58.9239216
  heat_capacity:      24.7467298
  energy:             23.6321103

- temperature:       950.0000000
  free_energy:       -32.3469270
  entropy:            59.1858159
  heat_capacity:      24.7508156
  energy:             23.8795981

- temperature:       960.0000000
  free_energy:       -32.9400834
  entropy:            59.4450100
  heat_capacity:      24.7547755
  energy:             24.1271262

- temperature:       970.0000000
  free_energy:       -33.5358184
  entropy:            59.7015584
  heat_capacity:      24.7586146
  energy:             24.3746932

- temperature:       980.0000000
  free_energy:       -34.1341059
  entropy:            59.9555143
  heat_capacity:      24.7623379
  energy:             24.6222981

- temperature:       990.0000000
  free_energy:       -34.7349202
  entropy:            60.2069291
  heat_capacity:      24.7659498
  energy:             24.8699396

- temperature:      1000.0000000
  free_energy:       -35.3382362
  entropy:            60.4558529
  heat_capacity:      24.7694548
  energy:             25.1176167
