phonopy:
  version: "2.37.1"
  frequency_unit_conversion_factor: 15.633302
  symmetry_tolerance: 1.00000e-05

space_group:
  type: "R-3m"
  number: 166
  Hall_symbol: "-R 3 2\""

primitive_matrix:
- [ -0.000000000000001, -1.000000000000000, -0.000000000000000 ]
- [ -1.000000000000000,  0.000000000000000,  0.000000000000000 ]
- [ -0.000000000000000, -0.000000000000000, -1.000000000000000 ]

supercell_matrix:
- [   2,   0,   0 ]
- [   0,   2,   0 ]
- [   0,   0,   2 ]

primitive_cell:
  lattice:
  - [    -3.628838028378539,    -4.207655887344194,    -0.000000000000000 ] # a
  - [    -5.556332806153331,     0.000000000000000,    -0.000000000000000 ] # b
  - [    -3.628837905609576,    -1.662342636597179,    -3.865356966587664 ] # c
  points:
  - symbol: Li # 1
    coordinates: [  0.678470313648643,  0.678470314731175,  0.678470329236554 ]
    mass: 6.940000
  - symbol: Li # 2
    coordinates: [  0.321507169145985,  0.321507162505730,  0.321507148702973 ]
    mass: 6.940000
  - symbol: Sn # 3
    coordinates: [  0.891910306816969,  0.891910307139294,  0.891910320815117 ]
    mass: 118.710000
  - symbol: Sn # 4
    coordinates: [  0.108067169824736,  0.108067174661918,  0.108067160406903 ]
    mass: 118.710000
  reciprocal_lattice: # without 2pi
  - [    -0.000000000000000,    -0.237662020558241,     0.102209372456116 ] # a*
  - [    -0.179974820603358,     0.155216940415795,     0.102209373286986 ] # b*
  - [     0.000000000000000,     0.000000000000000,    -0.258708318182266 ] # c*

unit_cell:
  lattice:
  - [     5.556332806153331,     0.000000000000000,     0.000000000000000 ] # a
  - [     3.628838028378537,     4.207655887344196,     0.000000000000000 ] # b
  - [     3.628837905609575,     1.662342636597179,     3.865356966587663 ] # c
  points:
  - symbol: Li # 1
    coordinates: [  0.321529685268825,  0.321529686351357,  0.321529670763446 ]
    mass: 6.940000
    reduced_to: 1
  - symbol: Li # 2
    coordinates: [  0.678492837494270,  0.678492830854014,  0.678492851297027 ]
    mass: 6.940000
    reduced_to: 2
  - symbol: Sn # 3
    coordinates: [  0.108089692860706,  0.108089693183031,  0.108089679184883 ]
    mass: 118.710000
    reduced_to: 3
  - symbol: Sn # 4
    coordinates: [  0.891932825338083,  0.891932830175263,  0.891932839593097 ]
    mass: 118.710000
    reduced_to: 4

supercell:
  lattice:
  - [    11.112665612306662,     0.000000000000000,     0.000000000000000 ] # a
  - [     7.257676056757075,     8.415311774688393,     0.000000000000000 ] # b
  - [     7.257675811219150,     3.324685273194357,     7.730713933175326 ] # c
  points:
  - symbol: Li # 1
    coordinates: [  0.160764842634412,  0.160764843175679,  0.160764835381723 ]
    mass: 6.940000
    reduced_to: 1
  - symbol: Li # 2
    coordinates: [  0.660764842634412,  0.160764843175679,  0.160764835381723 ]
    mass: 6.940000
    reduced_to: 1
  - symbol: Li # 3
    coordinates: [  0.160764842634412,  0.660764843175679,  0.160764835381723 ]
    mass: 6.940000
    reduced_to: 1
  - symbol: Li # 4
    coordinates: [  0.660764842634412,  0.660764843175679,  0.160764835381723 ]
    mass: 6.940000
    reduced_to: 1
  - symbol: Li # 5
    coordinates: [  0.160764842634412,  0.160764843175679,  0.660764835381723 ]
    mass: 6.940000
    reduced_to: 1
  - symbol: Li # 6
    coordinates: [  0.660764842634412,  0.160764843175679,  0.660764835381723 ]
    mass: 6.940000
    reduced_to: 1
  - symbol: Li # 7
    coordinates: [  0.160764842634412,  0.660764843175679,  0.660764835381723 ]
    mass: 6.940000
    reduced_to: 1
  - symbol: Li # 8
    coordinates: [  0.660764842634412,  0.660764843175679,  0.660764835381723 ]
    mass: 6.940000
    reduced_to: 1
  - symbol: Li # 9
    coordinates: [  0.339246418747135,  0.339246415427007,  0.339246425648514 ]
    mass: 6.940000
    reduced_to: 9
  - symbol: Li # 10
    coordinates: [  0.839246418747135,  0.339246415427007,  0.339246425648514 ]
    mass: 6.940000
    reduced_to: 9
  - symbol: Li # 11
    coordinates: [  0.339246418747135,  0.839246415427007,  0.339246425648514 ]
    mass: 6.940000
    reduced_to: 9
  - symbol: Li # 12
    coordinates: [  0.839246418747135,  0.839246415427007,  0.339246425648514 ]
    mass: 6.940000
    reduced_to: 9
  - symbol: Li # 13
    coordinates: [  0.339246418747135,  0.339246415427007,  0.839246425648514 ]
    mass: 6.940000
    reduced_to: 9
  - symbol: Li # 14
    coordinates: [  0.839246418747135,  0.339246415427007,  0.839246425648514 ]
    mass: 6.940000
    reduced_to: 9
  - symbol: Li # 15
    coordinates: [  0.339246418747135,  0.839246415427007,  0.839246425648514 ]
    mass: 6.940000
    reduced_to: 9
  - symbol: Li # 16
    coordinates: [  0.839246418747135,  0.839246415427007,  0.839246425648514 ]
    mass: 6.940000
    reduced_to: 9
  - symbol: Sn # 17
    coordinates: [  0.054044846430353,  0.054044846591515,  0.054044839592441 ]
    mass: 118.710000
    reduced_to: 17
  - symbol: Sn # 18
    coordinates: [  0.554044846430353,  0.054044846591515,  0.054044839592441 ]
    mass: 118.710000
    reduced_to: 17
  - symbol: Sn # 19
    coordinates: [  0.054044846430353,  0.554044846591515,  0.054044839592441 ]
    mass: 118.710000
    reduced_to: 17
  - symbol: Sn # 20
    coordinates: [  0.554044846430353,  0.554044846591515,  0.054044839592441 ]
    mass: 118.710000
    reduced_to: 17
  - symbol: Sn # 21
    coordinates: [  0.054044846430353,  0.054044846591515,  0.554044839592441 ]
    mass: 118.710000
    reduced_to: 17
  - symbol: Sn # 22
    coordinates: [  0.554044846430353,  0.054044846591515,  0.554044839592441 ]
    mass: 118.710000
    reduced_to: 17
  - symbol: Sn # 23
    coordinates: [  0.054044846430353,  0.554044846591515,  0.554044839592441 ]
    mass: 118.710000
    reduced_to: 17
  - symbol: Sn # 24
    coordinates: [  0.554044846430353,  0.554044846591515,  0.554044839592441 ]
    mass: 118.710000
    reduced_to: 17
  - symbol: Sn # 25
    coordinates: [  0.445966412669041,  0.445966415087632,  0.445966419796549 ]
    mass: 118.710000
    reduced_to: 25
  - symbol: Sn # 26
    coordinates: [  0.945966412669041,  0.445966415087632,  0.445966419796549 ]
    mass: 118.710000
    reduced_to: 25
  - symbol: Sn # 27
    coordinates: [  0.445966412669041,  0.945966415087632,  0.445966419796549 ]
    mass: 118.710000
    reduced_to: 25
  - symbol: Sn # 28
    coordinates: [  0.945966412669041,  0.945966415087632,  0.445966419796549 ]
    mass: 118.710000
    reduced_to: 25
  - symbol: Sn # 29
    coordinates: [  0.445966412669041,  0.445966415087632,  0.945966419796549 ]
    mass: 118.710000
    reduced_to: 25
  - symbol: Sn # 30
    coordinates: [  0.945966412669041,  0.445966415087632,  0.945966419796549 ]
    mass: 118.710000
    reduced_to: 25
  - symbol: Sn # 31
    coordinates: [  0.445966412669041,  0.945966415087632,  0.945966419796549 ]
    mass: 118.710000
    reduced_to: 25
  - symbol: Sn # 32
    coordinates: [  0.945966412669041,  0.945966415087632,  0.945966419796549 ]
    mass: 118.710000
    reduced_to: 25

displacements:
- atom:    1
  displacement:
    [   0.0100000000000000,  0.0000000000000000,  0.0000000000000000 ]
  forces:
  - [  -0.0560212843120098, -0.0145858488976955, -0.0096029024571180 ]
  - [  -0.0409887842833996, -0.0187355913221836, -0.0123374760150909 ]
  - [  -0.0410191938281059, -0.0187076367437840, -0.0123515781015158 ]
  - [  -0.0410412922501564, -0.0177990980446339, -0.0125421751290560 ]
  - [  -0.0410195030272007, -0.0187380108982325, -0.0123052522540092 ]
  - [  -0.0410409756004810, -0.0185546949505806, -0.0113957291468978 ]
  - [  -0.0408643707633018, -0.0187070220708847, -0.0123178064823151 ]
  - [  -0.0405114665627480, -0.0186092965304852, -0.0122530460357666 ]
  - [   0.0408719368278980,  0.0187338367104530,  0.0123360641300678 ]
  - [   0.0413439720869064,  0.0155877852812409,  0.0102639608085155 ]
  - [   0.0414455495774746,  0.0154928155243397,  0.0142942592501640 ]
  - [   0.0403193756937981,  0.0184308961033821,  0.0124310832470655 ]
  - [   0.0414444282650948,  0.0192525256425142,  0.0085848178714514 ]
  - [   0.0403177216649055,  0.0187021493911743,  0.0120192430913448 ]
  - [   0.0406783595681190,  0.0183802600950003,  0.0121035315096378 ]
  - [   0.0399467200040817,  0.0183570031076670,  0.0120867639780045 ]
  - [  -0.0024811113253236, -0.0008724285289645, -0.0005731862038374 ]
  - [  -0.0065551698207855, -0.0040452205576003, -0.0026628421619534 ]
  - [  -0.0076793059706688, -0.0035313908010721, -0.0026747188530862 ]
  - [  -0.0085869915783405, -0.0037343529984355, -0.0024510435760021 ]
  - [  -0.0076827341690660, -0.0038540568202734, -0.0021884893067181 ]
  - [  -0.0085872951894999, -0.0037283524870872, -0.0024638860486448 ]
  - [  -0.0083388332277536, -0.0037843757309020, -0.0024913516826928 ]
  - [  -0.0081581408157945, -0.0037490166723728, -0.0024689584970474 ]
  - [   0.0081809908151627,  0.0038167941384017,  0.0025129076093435 ]
  - [   0.0082595441490412,  0.0038817450404167,  0.0025557819753885 ]
  - [   0.0079123452305794,  0.0036495653912425,  0.0023571569472551 ]
  - [   0.0117647964507341,  0.0048225894570351, -0.0015027429908514 ]
  - [   0.0079121291637421,  0.0036083012819290,  0.0024211746640503 ]
  - [   0.0117630613967776,  0.0005252519622445,  0.0050213760696352 ]
  - [   0.0080277416855097,  0.0039132609963417,  0.0025775097310543 ]
  - [   0.0103878732770681,  0.0045815631747246,  0.0030175461433828 ]
- atom:    1
  displacement:
    [  -0.0100000000000000,  0.0000000000000000,  0.0000000000000000 ]
  forces:
  - [  -0.0253078490495682, -0.0226319637149572, -0.0149020720273256 ]
  - [  -0.0405633673071861, -0.0186074860394001, -0.0122530460357666 ]
  - [  -0.0405096411705017, -0.0186525993049145, -0.0122347297146916 ]
  - [  -0.0404934659600258, -0.0195460598915815, -0.0120443981140852 ]
  - [  -0.0405099615454674, -0.0186090022325516, -0.0123009998351336 ]
  - [  -0.0404929593205452, -0.0187871493399143, -0.0131970308721066 ]
  - [  -0.0406542755663395, -0.0186486802995205, -0.0122791640460491 ]
  - [  -0.0410155132412910, -0.0187365822494030, -0.0123369228094816 ]
  - [   0.0406594462692738,  0.0186140816658735,  0.0122573357075453 ]
  - [   0.0402010828256607,  0.0217394903302193,  0.0143148303031921 ]
  - [   0.0400570146739483,  0.0218566395342350,  0.0102958455681801 ]
  - [   0.0412045605480671,  0.0189117938280106,  0.0121776517480612 ]
  - [   0.0400563180446625,  0.0180937927216291,  0.0160101708024740 ]
  - [   0.0412027984857559,  0.0186593309044838,  0.0125613119453192 ]
  - [   0.0408516377210617,  0.0189510621130466,  0.0124792754650116 ]
  - [   0.0415995419025421,  0.0190053675323725,  0.0125136952847242 ]
  - [  -0.0140755735337734, -0.0067355139181018, -0.0044339075684547 ]
  - [  -0.0097181517630816, -0.0035679079592228, -0.0023487703874707 ]
  - [  -0.0087786447256804, -0.0040013883262873, -0.0022976859472692 ]
  - [  -0.0078410655260086, -0.0037928018718958, -0.0025135027244687 ]
  - [  -0.0087818615138531, -0.0036934260278940, -0.0027693407610059 ]
  - [  -0.0078407041728497, -0.0038089575245976, -0.0024933167733252 ]
  - [  -0.0080965608358383, -0.0037376303225756, -0.0024614366702735 ]
  - [  -0.0082840109243989, -0.0037814849056304, -0.0024897605180740 ]
  - [   0.0082597881555557,  0.0037144469097257,  0.0024457429535687 ]
  - [   0.0081761311739683,  0.0036435751244426,  0.0023991866037250 ]
  - [   0.0084983501583338,  0.0038878284394741,  0.0025775432586670 ]
  - [   0.0046110022813082,  0.0026770420372486,  0.0065504168160260 ]
  - [   0.0084985382854939,  0.0039043296128511,  0.0025525973178446 ]
  - [   0.0046102032065392,  0.0070750005543232, -0.0001302049495280 ]
  - [   0.0084169786423445,  0.0036398973315954,  0.0023975404910743 ]
  - [   0.0060602314770222,  0.0029649008065462,  0.0019531939178705 ]
- atom:   17
  displacement:
    [   0.0100000000000000,  0.0000000000000000,  0.0000000000000000 ]
  forces:
  - [  -0.0349303297698498, -0.0157183986157179, -0.0103497132658958 ]
  - [  -0.0392858646810055, -0.0192703995853662, -0.0126892952248454 ]
  - [  -0.0402071252465248, -0.0180465020239353, -0.0126501489430666 ]
  - [  -0.0411382652819157, -0.0186456032097340, -0.0120941614732146 ]
  - [  -0.0402077510952950, -0.0187513045966625, -0.0115800667554140 ]
  - [  -0.0411380194127560, -0.0184772275388241, -0.0123500134795904 ]
  - [  -0.0408807322382927, -0.0188511833548546, -0.0124127017334104 ]
  - [  -0.0407018847763538, -0.0186581313610077, -0.0122854039072990 ]
  - [   0.0407247208058834,  0.0187225006520748,  0.0123285334557295 ]
  - [   0.0408045873045921,  0.0182666070759296,  0.0120279528200626 ]
  - [   0.0404598899185658,  0.0190836936235428,  0.0119573250412941 ]
  - [   0.0443099290132523,  0.0197247713804245,  0.0085296966135502 ]
  - [   0.0404589548707008,  0.0185242984443903,  0.0128068272024393 ]
  - [   0.0443086847662926,  0.0156291499733925,  0.0147494291886687 ]
  - [   0.0405947230756283,  0.0186606105417013,  0.0122878961265087 ]
  - [   0.0429502725601196,  0.0194942709058523,  0.0128357280045748 ]
  - [  -0.0367353297770023, -0.0056303739547729, -0.0037063807249069 ]
  - [  -0.0069699352607131, -0.0039648078382015, -0.0026101041585207 ]
  - [  -0.0083542335778475, -0.0027527222409844, -0.0029960754327476 ]
  - [  -0.0077760443091393, -0.0041158348321915, -0.0021249046549201 ]
  - [  -0.0083573982119560, -0.0038422234356403, -0.0013460330665112 ]
  - [  -0.0077764512971044, -0.0035797096788883, -0.0029435954056680 ]
  - [  -0.0077302949503064, -0.0036177616566420, -0.0023822071962059 ]
  - [  -0.0082179279997945, -0.0037880931049585, -0.0024943235330284 ]
  - [   0.0079736346378922,  0.0034485692158341,  0.0022704857401550 ]
  - [   0.0081249028444290,  0.0038445265963674,  0.0025310926139355 ]
  - [   0.0083087664097548,  0.0036865817382932,  0.0026663849130273 ]
  - [   0.0077260136604309,  0.0036023557186127,  0.0056730750948191 ]
  - [   0.0083088483661413,  0.0039068851619959,  0.0023328019306064 ]
  - [   0.0077247768640518,  0.0066352058202028,  0.0010662530548871 ]
  - [   0.0166290681809187, -0.0009864112362266, -0.0006488035432994 ]
  - [   0.0109997689723969,  0.0054667284712195,  0.0036004967987537 ]
- atom:   17
  displacement:
    [  -0.0100000000000000,  0.0000000000000000,  0.0000000000000000 ]
  forces:
  - [  -0.0465218834578991, -0.0215805582702160, -0.0142102157697082 ]
  - [  -0.0424480438232422, -0.0179602187126875, -0.0118267480283976 ]
  - [  -0.0413053780794144, -0.0193476304411888, -0.0119151221588254 ]
  - [  -0.0403921082615852, -0.0187043361365795, -0.0124915577471256 ]
  - [  -0.0413053296506405, -0.0185900460928679, -0.0130654610693455 ]
  - [  -0.0403919517993927, -0.0188657268881798, -0.0122472736984491 ]
  - [  -0.0406393557786942, -0.0184972453862429, -0.0121795888990164 ]
  - [  -0.0408273227512836, -0.0186902992427349, -0.0123066306114197 ]
  - [   0.0408036783337593,  0.0186199545860291,  0.0122613348066807 ]
  - [   0.0407209284603596,  0.0190826728940010,  0.0125652719289064 ]
  - [   0.0410463698208332,  0.0182681176811457,  0.0126304291188717 ]
  - [   0.0371591970324516,  0.0175802111625671,  0.0162353701889515 ]
  - [   0.0410453304648399,  0.0188205540180206,  0.0117916315793991 ]
  - [   0.0371582247316837,  0.0218607466667891,  0.0097351176664233 ]
  - [   0.0409853644669056,  0.0187068898230791,  0.0123183503746986 ]
  - [   0.0386257022619247,  0.0178785137832165,  0.0117716854438186 ]
  - [   0.0204313118010759, -0.0018157907761633, -0.0011947578750551 ]
  - [  -0.0094510009512305, -0.0035867583937943, -0.0023607397451997 ]
  - [  -0.0080759739503264, -0.0047531211748719, -0.0019693579524755 ]
  - [  -0.0086505208164454, -0.0033871233463287, -0.0028433687984943 ]
  - [  -0.0080795902758837, -0.0036890292540193, -0.0035896119661629 ]
  - [  -0.0086508998647332, -0.0039516184478998, -0.0019898409955204 ]
  - [  -0.0087072281166911, -0.0039013787172735, -0.0025688498280942 ]
  - [  -0.0082159629091620, -0.0037403772585094, -0.0024622837081552 ]
  - [   0.0084641911089420,  0.0040833801031113,  0.0026884959079325 ]
  - [   0.0083221253007650,  0.0036883032880723,  0.0024284166283906 ]
  - [   0.0081356912851334,  0.0038497094064951,  0.0022920514456928 ]
  - [   0.0086712893098593,  0.0039142798632383, -0.0007064975798130 ]
  - [   0.0081354528665543,  0.0036274837329984,  0.0026297485455871 ]
  - [   0.0086698327213526,  0.0008970149792731,  0.0038731270469725 ]
  - [   0.0001647090539336,  0.0082883620634675,  0.0054583922028542 ]
  - [   0.0051231589168310,  0.0018950812518597,  0.0012484705075622 ]

force_constants:
  format: "full"
  shape: [ 32, 32 ]
  elements:
  - # (1, 1)
    - [     1.535647165420891,    -0.402334351497890,    -0.264934647709985 ]
    - [    -0.402334351497890,     2.229623197908184,    -0.121364520386420 ]
    - [    -0.264934647709985,    -0.121364520386420,     2.334011688410372 ]
  - # (1, 2)
    - [     0.021246251635324,     0.006382305816455,     0.004202709706403 ]
    - [     0.006382304144459,     0.017572872253237,     0.004073317531607 ]
    - [     0.004202707573618,     0.004073318024126,     0.014069316588111 ]
  - # (1, 3)
    - [     0.025452755622699,     0.002754460124384,     0.005829397740372 ]
    - [     0.002754460423017,     0.013366368663391,     0.000522313155095 ]
    - [     0.005829396370829,     0.000522312362458,     0.014069316312066 ]
  - # (1, 4)
    - [     0.027371464570498,    -0.087348044270388,     0.024884872962827 ]
    - [    -0.087348054214758,     0.178035842339681,     0.011399568595101 ]
    - [     0.024884870284324,     0.011399569403267,    -0.021393643023394 ]
  - # (1, 5)
    - [     0.025452756205539,     0.006443386764457,     0.000227330049754 ]
    - [     0.006443386788917,     0.014338727739655,     0.000104137603398 ]
    - [     0.000227328075977,     0.000104137512297,     0.013096957023681 ]
  - # (1, 6)
    - [     0.027371467415513,    -0.011648643300231,    -0.090073570485737 ]
    - [    -0.011648642560810,     0.018008893041779,     0.080221057608993 ]
    - [    -0.090073569510834,     0.080221057854247,     0.138633302134270 ]
  - # (1, 7)
    - [     0.010480162464296,     0.002919039429605,     0.001922175767783 ]
    - [     0.002919044000845,     0.034900197697089,    -0.120602532017208 ]
    - [     0.001922166450275,    -0.120602538639116,     0.138633302145239 ]
  - # (1, 8)
    - [    -0.025226931942517,    -0.006374656619866,    -0.004197670151104 ]
    - [    -0.006374656651715,    -0.014231451087574,    -0.001922920278459 ]
    - [    -0.004197670102738,    -0.001922920384039,    -0.012577500234494 ]
  - # (1, 9)
    - [    -0.010649125946365,    -0.005993771952461,    -0.003946859984624 ]
    - [    -0.005993771984310,    -0.000310623121330,    -0.001808026074069 ]
    - [    -0.003946859936259,    -0.001808026179649,     0.001244504514456 ]
  - # (1, 10)
    - [    -0.057169056592513,     0.307583567752619,     0.202541842900241 ]
    - [     0.307583578513176,    -0.609111235892029,    -0.438672322731153 ]
    - [     0.202541850804978,    -0.438672332333852,    -0.231798758920343 ]
  - # (1, 11)
    - [    -0.069440717690255,     0.318167108514331,    -0.199914349755572 ]
    - [     0.318167109253752,    -0.596839580371538,     0.439875958487997 ]
    - [    -0.199914348780669,     0.439875958733251,    -0.231798751006989 ]
  - # (1, 12)
    - [     0.044231945142499,     0.024039805578673,    -0.012688913502605 ]
    - [     0.024039805603133,     0.002766312820552,    -0.005812694026440 ]
    - [    -0.012688915476382,    -0.005812694117542,    -0.012231935384056 ]
  - # (1, 13)
    - [    -0.069440724654396,    -0.057950930784559,     0.371265056812765 ]
    - [    -0.057950936338283,     0.030517326439960,     0.170073670696489 ]
    - [     0.371265083472747,     0.170073675596500,    -0.859155643603325 ]
  - # (1, 14)
    - [     0.044231943983927,    -0.002159111106279,     0.027097216766500 ]
    - [    -0.002159111094162,    -0.014110205187718,     0.001445253147572 ]
    - [     0.027097217029996,     0.001445252247131,     0.004644584788241 ]
  - # (1, 15)
    - [     0.008639311543561,     0.028537291453435,     0.018791628086063 ]
    - [     0.028537290663384,     0.021482427636822,     0.019576073122530 ]
    - [     0.018791626702481,     0.019576073914530,     0.004644584978415 ]
  - # (1, 16)
    - [     0.082616497222760,     0.032408939074733,     0.021341084591253 ]
    - [     0.032408939074733,     0.026715165254659,     0.009776186390134 ]
    - [     0.021341084591252,     0.009776186390134,     0.018306438257042 ]
  - # (1, 17)
    - [    -0.579650381994857,    -0.293133674399599,    -0.193026685419941 ]
    - [    -0.293133674582509,    -0.074031749052022,    -0.088424037241907 ]
    - [    -0.193026686408828,    -0.088424037161370,     0.002023854649446 ]
  - # (1, 18)
    - [    -0.158129000507143,     0.023912884255940,     0.015746482582414 ]
    - [     0.065496920510961,    -0.055278894715603,     0.011336626442227 ]
    - [     0.043129306175576,     0.011336625144499,    -0.065029794346079 ]
  - # (1, 19)
    - [    -0.054928701071456,    -0.023506833056890,     0.018868929726129 ]
    - [    -0.065090869831276,    -0.158479197325296,     0.004520427002016 ]
    - [     0.036752638026976,     0.025256677151531,    -0.065029793820519 ]
  - # (1, 20)
    - [     0.037309288275755,    -0.002939572875793,    -0.003141169648382 ]
    - [    -0.002939573912715,     0.042379682750269,    -0.001438946157788 ]
    - [    -0.019872641751819,    -0.009103503785133,     0.012776183212499 ]
  - # (1, 21)
    - [    -0.054928700297420,     0.008046937120219,    -0.029049174297750 ]
    - [     0.008046935883026,    -0.068808651823029,    -0.013307202973816 ]
    - [    -0.074315710464856,    -0.034043453884898,    -0.154700345091349 ]
  - # (1, 22)
    - [     0.037309287945813,    -0.004046986702304,    -0.001459432334846 ]
    - [    -0.019417327380612,     0.013570608844026,     0.003286180498269 ]
    - [     0.005150763812923,     0.010950738334695,     0.041585259231386 ]
  - # (1, 23)
    - [     0.012091239156897,     0.002331651032760,     0.001535378717123 ]
    - [     0.017701991235959,     0.038788658794333,    -0.003251390505901 ]
    - [     0.011656648798934,    -0.003251391296944,     0.041585259051919 ]
  - # (1, 24)
    - [    -0.006282685848464,    -0.001609743023325,    -0.001060003429754 ]
    - [    -0.001609743055372,    -0.003506079759547,    -0.000485579918747 ]
    - [    -0.001060004644291,    -0.000485579339960,    -0.003088419219995 ]
  - # (1, 25)
    - [     0.003943887946629,    -0.005115898289261,    -0.003368784699456 ]
    - [    -0.005115898321123,     0.012768169818325,    -0.001543214825693 ]
    - [    -0.003368785913478,    -0.001543214246726,     0.014095527106938 ]
  - # (1, 26)
    - [    -0.004176777185645,    -0.011893055297204,    -0.007831502122092 ]
    - [     0.040788018999222,     0.029307564257739,     0.021287175196825 ]
    - [     0.026858653160215,     0.021287174408972,     0.010997960700085 ]
  - # (1, 27)
    - [     0.029315885492724,     0.011902707764525,     0.011005435816772 ]
    - [    -0.040778368032197,    -0.004185100503928,    -0.019833221101976 ]
    - [     0.033661556598768,     0.006436668142360,     0.010997961545204 ]
  - # (1, 28)
    - [    -0.357598047939488,    -0.107242362841458,     0.402627490999939 ]
    - [    -0.107242364108276,    -0.172618493964255,     0.184440551037964 ]
    - [     0.385293272695510,     0.176499879687217,    -0.420949756603961 ]
  - # (1, 29)
    - [     0.029315886798883,     0.014812595568691,     0.006586427278818 ]
    - [     0.014812595873313,     0.003766025616280,     0.003017191308049 ]
    - [    -0.050759853304563,    -0.023252697676864,     0.003046831730678 ]
  - # (1, 30)
    - [    -0.357598035366920,     0.327504315203387,    -0.257586390467038 ]
    - [     0.311580254104370,    -0.251190844185405,     0.210290854874770 ]
    - [    -0.250738066961720,     0.218231542719963,    -0.342377437272570 ]
  - # (1, 31)
    - [     0.019496977231430,    -0.013640428855426,    -0.008982134239291 ]
    - [     0.002283639257960,    -0.628285867290184,    -0.332403848213678 ]
    - [     0.001503763586989,    -0.332403852029389,    -0.342377435442116 ]
  - # (1, 32)
    - [    -0.216305287038201,    -0.080808930581280,    -0.053212172256977 ]
    - [    -0.080808930764219,    -0.076920067596524,    -0.024376086245781 ]
    - [    -0.053212173245948,    -0.024376086165274,    -0.055953618410858 ]
  - # (2, 1)
    - [     0.021246251635324,     0.006382304144459,     0.004202707573618 ]
    - [     0.006382305816455,     0.017572872253237,     0.004073318024126 ]
    - [     0.004202709706403,     0.004073317531607,     0.014069316588111 ]
  - # (2, 2)
    - [     1.535647036090082,    -0.402334292868408,    -0.264934580002134 ]
    - [    -0.402334292868408,     2.229623268458372,    -0.121364472877665 ]
    - [    -0.264934580002134,    -0.121364472877665,     2.334011744666184 ]
  - # (2, 3)
    - [     0.027371465448715,    -0.087348054513640,     0.024884869712802 ]
    - [    -0.087348043329102,     0.178035842189185,     0.011399569295653 ]
    - [     0.024884871010537,     0.011399567512725,    -0.021393644524526 ]
  - # (2, 4)
    - [     0.025452757035893,     0.002754459838898,     0.005829396157123 ]
    - [     0.002754459067628,     0.013366366196806,     0.000522312151938 ]
    - [     0.005829395230585,     0.000522311801105,     0.014069316020726 ]
  - # (2, 5)
    - [     0.027371466968116,    -0.011648645741359,    -0.090073573438602 ]
    - [    -0.011648640374921,     0.018008892607683,     0.080221057934638 ]
    - [    -0.090073564803116,     0.080221058295784,     0.138633302646346 ]
  - # (2, 6)
    - [     0.025452755212625,     0.006443384974184,     0.000227327765666 ]
    - [     0.006443387245743,     0.014338727498169,     0.000104138053015 ]
    - [     0.000227330914237,     0.000104137755460,     0.013096955973812 ]
  - # (2, 7)
    - [    -0.025226929160032,    -0.006374658907081,    -0.004197673401423 ]
    - [    -0.006374655749169,    -0.014231452113243,    -0.001922921439994 ]
    - [    -0.004197675005767,    -0.001922923173299,    -0.012577503996598 ]
  - # (2, 8)
    - [     0.010480162640718,     0.002919042157157,     0.001922167786482 ]
    - [     0.002919042139907,     0.034900197120343,    -0.120602536575112 ]
    - [     0.001922170672214,    -0.120602536195619,     0.138633301297211 ]
  - # (2, 9)
    - [    -0.057169049263079,     0.307583585052265,     0.202541851841844 ]
    - [     0.307583550159303,    -0.609111249593345,    -0.438672332757472 ]
    - [     0.202541829470916,    -0.438672332447861,    -0.231798759752611 ]
  - # (2, 10)
    - [    -0.010649123842776,    -0.005993774152502,    -0.003946862513928 ]
    - [    -0.005993771035603,    -0.000310624034106,    -0.001808026864120 ]
    - [    -0.003946864109346,    -0.001808028580965,     0.001244501318355 ]
  - # (2, 11)
    - [     0.044231943524376,     0.024039804257142,    -0.012688915384593 ]
    - [     0.024039805141707,     0.002766312544509,    -0.005812693503273 ]
    - [    -0.012688912747648,    -0.005812694559127,    -0.012231937150335 ]
  - # (2, 12)
    - [    -0.069440711498274,     0.318167109567626,    -0.199914351528224 ]
    - [     0.318167096667624,    -0.596839582738076,     0.439875961791276 ]
    - [    -0.199914341365818,     0.439875959358826,    -0.231798753150685 ]
  - # (2, 13)
    - [     0.044231944196511,    -0.002159111531204,     0.027097215449046 ]
    - [    -0.002159112302473,    -0.014110209288371,     0.001445252265361 ]
    - [     0.027097214522508,     0.001445251914527,     0.004644584563742 ]
  - # (2, 14)
    - [    -0.069440711810697,    -0.057950930251377,     0.371265050027900 ]
    - [    -0.057950924880762,     0.030517329709418,     0.170073659417425 ]
    - [     0.371265060563398,     0.170073672623175,    -0.859155652482933 ]
  - # (2, 15)
    - [     0.082616495395400,     0.032408939178853,     0.021341084407216 ]
    - [     0.032408939178853,     0.026715165255767,     0.009776187087965 ]
    - [     0.021341084407216,     0.009776187087965,     0.018306437558474 ]
  - # (2, 16)
    - [     0.008639311543561,     0.028537290663384,     0.018791626702481 ]
    - [     0.028537291453435,     0.021482427636822,     0.019576073914530 ]
    - [     0.018791628086063,     0.019576073122530,     0.004644584978415 ]
  - # (2, 17)
    - [    -0.158129004322891,     0.023912882286948,     0.015746480694687 ]
    - [     0.065496919743982,    -0.055278895176104,     0.011336627814607 ]
    - [     0.043129308168622,     0.011336626203477,    -0.065029793770966 ]
  - # (2, 18)
    - [    -0.579650352669415,    -0.293133686738248,    -0.193026701586569 ]
    - [    -0.293133686068273,    -0.074031765137198,    -0.088424051093081 ]
    - [    -0.193026701860007,    -0.088424052421782,     0.002023842584403 ]
  - # (2, 19)
    - [     0.037309286324034,    -0.002939574435127,    -0.003141172189349 ]
    - [    -0.002939570960216,     0.042379682587591,    -0.001438945859844 ]
    - [    -0.019872639608661,    -0.009103504508170,     0.012776182766548 ]
  - # (2, 20)
    - [    -0.054928696727841,    -0.023506841215556,     0.018868927730728 ]
    - [    -0.065090876121732,    -0.158479209878635,     0.004520423645896 ]
    - [     0.036752635420628,     0.025256675655696,    -0.065029795558375 ]
  - # (2, 21)
    - [     0.037309287796569,    -0.004046988595488,    -0.001459433929210 ]
    - [    -0.019417327283524,     0.013570606841318,     0.003286180211105 ]
    - [     0.005150764652019,     0.010950738042439,     0.041585258109626 ]
  - # (2, 22)
    - [    -0.054928697834902,     0.008046934683057,    -0.029049178213074 ]
    - [     0.008046935561698,    -0.068808653629806,    -0.013307204662996 ]