# Thermal properties / unit cell (natom)

unit:
  temperature:   K
  free_energy:   kJ/mol
  entropy:       J/K/mol
  heat_capacity: J/K/mol

natom: 4    
cutoff_frequency: 0.00000
num_modes: 190080
num_integrated_modes: 190077

zero_point_energy:      15.2524093

thermal_properties:
- temperature:         0.0000000
  free_energy:        15.2524093
  entropy:             0.0000000
  heat_capacity:       0.0000000
  energy:             15.2524093

- temperature:        10.0000000
  free_energy:        15.2522474
  entropy:             0.0704862
  heat_capacity:       0.2366575
  energy:             15.2529523

- temperature:        20.0000000
  free_energy:        15.2488376
  entropy:             0.8149516
  heat_capacity:       2.8802073
  energy:             15.2651367

- temperature:        30.0000000
  free_energy:        15.2307001
  entropy:             3.0842976
  heat_capacity:       9.1651714
  energy:             15.3232290

- temperature:        40.0000000
  free_energy:        15.1824664
  entropy:             6.7488737
  heat_capacity:      16.6999940
  energy:             15.4524213

- temperature:        50.0000000
  free_energy:        15.0929121
  entropy:            11.2632194
  heat_capacity:      23.9310513
  energy:             15.6560731

- temperature:        60.0000000
  free_energy:        14.9557474
  entropy:            16.2201449
  heat_capacity:      30.5465185
  energy:             15.9289561

- temperature:        70.0000000
  free_energy:        14.7678055
  entropy:            21.3915294
  heat_capacity:      36.6236857
  energy:             16.2652125

- temperature:        80.0000000
  free_energy:        14.5276194
  entropy:            26.6537188
  heat_capacity:      42.2449771
  energy:             16.6599169

- temperature:        90.0000000
  free_energy:        14.2346749
  entropy:            31.9335434
  heat_capacity:      47.4399330
  energy:             17.1086938

- temperature:       100.0000000
  free_energy:        13.8890528
  entropy:            37.1825117
  heat_capacity:      52.2114311
  energy:             17.6073040

- temperature:       110.0000000
  free_energy:        13.4912437
  entropy:            42.3660854
  heat_capacity:      56.5604464
  energy:             18.1515131

- temperature:       120.0000000
  free_energy:        13.0420335
  entropy:            47.4591839
  heat_capacity:      60.4965965
  energy:             18.7371356

- temperature:       130.0000000
  free_energy:        12.5424218
  entropy:            52.4439333
  heat_capacity:      64.0394316
  energy:             19.3601331

- temperature:       140.0000000
  free_energy:        11.9935570
  entropy:            57.3081826
  heat_capacity:      67.2159152
  energy:             20.0167026

- temperature:       150.0000000
  free_energy:        11.3966856
  entropy:            62.0443215
  heat_capacity:      70.0571522
  energy:             20.7033338

- temperature:       160.0000000
  free_energy:        10.7531115
  entropy:            66.6482811
  heat_capacity:      72.5956146
  energy:             21.4168364

- temperature:       170.0000000
  free_energy:        10.0641653
  entropy:            71.1186941
  heat_capacity:      74.8631820
  energy:             22.1543433

- temperature:       180.0000000
  free_energy:         9.3311808
  entropy:            75.4562049
  heat_capacity:      76.8899292
  energy:             22.9132976

- temperature:       190.0000000
  free_energy:         8.5554773
  entropy:            79.6629169
  heat_capacity:      78.7034817
  energy:             23.6914315

- temperature:       200.0000000
  free_energy:         7.7383481
  entropy:            83.7419596
  heat_capacity:      80.3287585
  energy:             24.4867400

- temperature:       210.0000000
  free_energy:         6.8810510
  entropy:            87.6971543
  heat_capacity:      81.7879607
  energy:             25.2974534

- temperature:       220.0000000
  free_energy:         5.9848036
  entropy:            91.5327620
  heat_capacity:      83.1007027
  energy:             26.1220113

- temperature:       230.0000000
  free_energy:         5.0507794
  entropy:            95.2532939
  heat_capacity:      84.2842176
  energy:             26.9590369

- temperature:       240.0000000
  free_energy:         4.0801059
  entropy:            98.8633727
  heat_capacity:      85.3535940
  energy:             27.8073154

- temperature:       250.0000000
  free_energy:         3.0738646
  entropy:           102.3676315
  heat_capacity:      86.3220167
  energy:             28.6657725

- temperature:       260.0000000
  free_energy:         2.0330908
  entropy:           105.7706421
  heat_capacity:      87.2009963
  energy:             29.5334577

- temperature:       270.0000000
  free_energy:         0.9587744
  entropy:           109.0768649
  heat_capacity:      88.0005823
  energy:             30.4095279

- temperature:       280.0000000
  free_energy:        -0.1481383
  entropy:           112.2906157
  heat_capacity:      88.7295526
  energy:             31.2932341

- temperature:       290.0000000
  free_energy:        -1.2867435
  entropy:           115.4160442
  heat_capacity:      89.3955829
  energy:             32.1839093

- temperature:       300.0000000
  free_energy:        -2.4561780
  entropy:           118.4571216
  heat_capacity:      90.0053936
  energy:             33.0809584

- temperature:       310.0000000
  free_energy:        -3.6556174
  entropy:           121.4176352
  heat_capacity:      90.5648787
  energy:             33.9838495

- temperature:       320.0000000
  free_energy:        -4.8842742
  entropy:           124.3011869
  heat_capacity:      91.0792164
  energy:             34.8921056

- temperature:       330.0000000
  free_energy:        -6.1413960
  entropy:           127.1111958
  heat_capacity:      91.5529646
  energy:             35.8052986

- temperature:       340.0000000
  free_energy:        -7.4262638
  entropy:           129.8509025
  heat_capacity:      91.9901432
  energy:             36.7230430

- temperature:       350.0000000
  free_energy:        -8.7381900
  entropy:           132.5233755
  heat_capacity:      92.3943052
  energy:             37.6449914

- temperature:       360.0000000
  free_energy:       -10.0765169
  entropy:           135.1315181
  heat_capacity:      92.7685969
  energy:             38.5708296

- temperature:       370.0000000
  free_energy:       -11.4406151
  entropy:           137.6780763
  heat_capacity:      93.1158108
  energy:             39.5002731

- temperature:       380.0000000
  free_energy:       -12.8298818
  entropy:           140.1656466
  heat_capacity:      93.4384300
  energy:             40.4330639

- temperature:       390.0000000
  free_energy:       -14.2437396
  entropy:           142.5966840
  heat_capacity:      93.7386675
  energy:             41.3689672

- temperature:       400.0000000
  free_energy:       -15.6816348
  entropy:           144.9735101
  heat_capacity:      94.0184993
  energy:             42.3077692

- temperature:       410.0000000
  free_energy:       -17.1430364
  entropy:           147.2983207
  heat_capacity:      94.2796933
  energy:             43.2492750

- temperature:       420.0000000
  free_energy:       -18.6274348
  entropy:           149.5731930
  heat_capacity:      94.5238347
  energy:             44.1933063

- temperature:       430.0000000
  free_energy:       -20.1343404
  entropy:           151.8000932
  heat_capacity:      94.7523472
  energy:             45.1396997

- temperature:       440.0000000
  free_energy:       -21.6632830
  entropy:           153.9808826
  heat_capacity:      94.9665121
  energy:             46.0883054

- temperature:       450.0000000
  free_energy:       -23.2138102
  entropy:           156.1173248
  heat_capacity:      95.1674845
  energy:             47.0389859

- temperature:       460.0000000
  free_energy:       -24.7854872
  entropy:           158.2110909
  heat_capacity:      95.3563078
  energy:             47.9916146

- temperature:       470.0000000
  free_energy:       -26.3778951
  entropy:           160.2637656
  heat_capacity:      95.5339261
  energy:             48.9460747

- temperature:       480.0000000
  free_energy:       -27.9906306
  entropy:           162.2768525
  heat_capacity:      95.7011951
  energy:             49.9022586

- temperature:       490.0000000
  free_energy:       -29.6233050
  entropy:           164.2517790
  heat_capacity:      95.8588916
  energy:             50.8600667

- temperature:       500.0000000
  free_energy:       -31.2755435
  entropy:           166.1899008
  heat_capacity:      96.0077219
  energy:             51.8194069

- temperature:       510.0000000
  free_energy:       -32.9469846
  entropy:           168.0925066
  heat_capacity:      96.1483296
  energy:             52.7801938

- temperature:       520.0000000
  free_energy:       -34.6372793
  entropy:           169.9608219
  heat_capacity:      96.2813013
  energy:             53.7423481

- temperature:       530.0000000
  free_energy:       -36.3460906
  entropy:           171.7960128
  heat_capacity:      96.4071733
  energy:             54.7057962

- temperature:       540.0000000
  free_energy:       -38.0730929
  entropy:           173.5991896
  heat_capacity:      96.5264361
  energy:             55.6704695

- temperature:       550.0000000
  free_energy:       -39.8179712
  entropy:           175.3714101
  heat_capacity:      96.6395391
  energy:             56.6363043

- temperature:       560.0000000
  free_energy:       -41.5804212
  entropy:           177.1136828
  heat_capacity:      96.7468945
  energy:             57.6032411

- temperature:       570.0000000
  free_energy:       -43.3601483
  entropy:           178.8269695
  heat_capacity:      96.8488812
  energy:             58.5712243

- temperature:       580.0000000
  free_energy:       -45.1568671
  entropy:           180.5121881
  heat_capacity:      96.9458474
  energy:             59.5402020

- temperature:       590.0000000
  free_energy:       -46.9703014
  entropy:           182.1702153
  heat_capacity:      97.0381141
  energy:             60.5101256

- temperature:       600.0000000
  free_energy:       -48.8001835
  entropy:           183.8018886
  heat_capacity:      97.1259773
  energy:             61.4809496

- temperature:       610.0000000
  free_energy:       -50.6462540
  entropy:           185.4080089
  heat_capacity:      97.2097100
  energy:             62.4526314

- temperature:       620.0000000
  free_energy:       -52.5082611
  entropy:           186.9893420
  heat_capacity:      97.2895650
  energy:             63.4251309

- temperature:       630.0000000
  free_energy:       -54.3859607
  entropy:           188.5466210
  heat_capacity:      97.3657759
  energy:             64.3984106

- temperature:       640.0000000
  free_energy:       -56.2791157
  entropy:           190.0805480
  heat_capacity:      97.4385592
  energy:             65.3724350

- temperature:       650.0000000
  free_energy:       -58.1874960
  entropy:           191.5917954
  heat_capacity:      97.5081157
  energy:             66.3471710

- temperature:       660.0000000
  free_energy:       -60.1108781
  entropy:           193.0810081
  heat_capacity:      97.5746319
  energy:             67.3225872

- temperature:       670.0000000
  free_energy:       -62.0490448
  entropy:           194.5488043
  heat_capacity:      97.6382811
  energy:             68.2986541

- temperature:       680.0000000
  free_energy:       -64.0017848
  entropy:           195.9957774
  heat_capacity:      97.6992245
  energy:             69.2753438

- temperature:       690.0000000
  free_energy:       -65.9688928
  entropy:           197.4224969
  heat_capacity:      97.7576122
  energy:             70.2526300

- temperature:       700.0000000
  free_energy:       -67.9501691
  entropy:           198.8295101
  heat_capacity:      97.8135840
  energy:             71.2304880

- temperature:       710.0000000
  free_energy:       -69.9454191
  entropy:           200.2173426
  heat_capacity:      97.8672707
  energy:             72.2088941

- temperature:       720.0000000
  free_energy:       -71.9544537
  entropy:           201.5864998
  heat_capacity:      97.9187940
  energy:             73.1878262

- temperature:       730.0000000
  free_energy:       -73.9770885
  entropy:           202.9374680
  heat_capacity:      97.9682679
  energy:             74.1672632

- temperature:       740.0000000
  free_energy:       -76.0131440
  entropy:           204.2707149
  heat_capacity:      98.0157990
  energy:             75.1471851

- temperature:       750.0000000
  free_energy:       -78.0624452
  entropy:           205.5866909
  heat_capacity:      98.0614871
  energy:             76.1275730

- temperature:       760.0000000
  free_energy:       -80.1248217
  entropy:           206.8858298
  heat_capacity:      98.1054256
  energy:             77.1084090

- temperature:       770.0000000
  free_energy:       -82.2001071
  entropy:           208.1685494
  heat_capacity:      98.1477024
  energy:             78.0896760

- temperature:       780.0000000
  free_energy:       -84.2881393
  entropy:           209.4352526
  heat_capacity:      98.1883995
  energy:             79.0713578

- temperature:       790.0000000
  free_energy:       -86.3887600
  entropy:           210.6863278
  heat_capacity:      98.2275944
  energy:             80.0534390

- temperature:       800.0000000
  free_energy:       -88.5018150
  entropy:           211.9221498
  heat_capacity:      98.2653597
  energy:             81.0359049

- temperature:       810.0000000
  free_energy:       -90.6271534
  entropy:           213.1430803
  heat_capacity:      98.3017637
  energy:             82.0187416

- temperature:       820.0000000
  free_energy:       -92.7646281
  entropy:           214.3494682
  heat_capacity:      98.3368707
  energy:             83.0019358

- temperature:       830.0000000
  free_energy:       -94.9140954
  entropy:           215.5416510
  heat_capacity:      98.3707413
  energy:             83.9854749

- temperature:       840.0000000
  free_energy:       -97.0754149
  entropy:           216.7199543
  heat_capacity:      98.4034327
  energy:             84.9693467

- temperature:       850.0000000
  free_energy:       -99.2484493
  entropy:           217.8846930
  heat_capacity:      98.4349985
  energy:             85.9535398

- temperature:       860.0000000
  free_energy:      -101.4330645
  entropy:           219.0361717
  heat_capacity:      98.4654898
  energy:             86.9380431

- temperature:       870.0000000
  free_energy:      -103.6291295
  entropy:           220.1746847
  heat_capacity:      98.4949545
  energy:             87.9228462

- temperature:       880.0000000
  free_energy:      -105.8365160
  entropy:           221.3005169
  heat_capacity:      98.5234380
  energy:             88.9079389

- temperature:       890.0000000
  free_energy:      -108.0550985
  entropy:           222.4139442
  heat_capacity:      98.5509831
  energy:             89.8933118

- temperature:       900.0000000
  free_energy:      -110.2847544
  entropy:           223.5152333
  heat_capacity:      98.5776305
  energy:             90.8789556

- temperature:       910.0000000
  free_energy:      -112.5253636
  entropy:           224.6046430
  heat_capacity:      98.6034186
  energy:             91.8648616

- temperature:       920.0000000
  free_energy:      -114.7768085
  entropy:           225.6824236
  heat_capacity:      98.6283838
  energy:             92.8510212

- temperature:       930.0000000
  free_energy:      -117.0389741
  entropy:           226.7488179
  heat_capacity:      98.6525607
  energy:             93.8374266

- temperature:       940.0000000
  free_energy:      -119.3117477
  entropy:           227.8040613
  heat_capacity:      98.6759818
  energy:             94.8240699

- temperature:       950.0000000
  free_energy:      -121.5950189
  entropy:           228.8483818
  heat_capacity:      98.6986784
  energy:             95.8109438

- temperature:       960.0000000
  free_energy:      -123.8886796
  entropy:           229.8820009
  heat_capacity:      98.7206798
  energy:             96.7980412

- temperature:       970.0000000
  free_energy:      -126.1926240
  entropy:           230.9051332
  heat_capacity:      98.7420140
  energy:             97.7853552

- temperature:       980.0000000
  free_energy:      -128.5067480
  entropy:           231.9179871
  heat_capacity:      98.7627077
  energy:             98.7728793

- temperature:       990.0000000
  free_energy:      -130.8309501
  entropy:           232.9207651
  heat_capacity:      98.7827862
  energy:             99.7606073

- temperature:      1000.0000000
  free_energy:      -133.1651304
  entropy:           233.9136635
  heat_capacity:      98.8022735
  energy:            100.7485331
