phonopy:
  version: "2.37.1"
  frequency_unit_conversion_factor: 15.633302
  symmetry_tolerance: 1.00000e-05

space_group:
  type: "P4/mmm"
  number: 123
  Hall_symbol: "-P 4 2"

primitive_matrix:
- [  1.000000000000000,  0.000000000000000,  0.000000000000000 ]
- [  0.000000000000000,  1.000000000000000,  0.000000000000000 ]
- [  0.000000000000000,  0.000000000000000,  1.000000000000000 ]

supercell_matrix:
- [   4,   0,   0 ]
- [   0,   4,   0 ]
- [   0,   0,   3 ]

primitive_cell:
  lattice:
  - [     3.195881528056814,     0.000000000000000,     0.000000000000000 ] # a
  - [    -0.000000225250275,     3.195881915690482,     0.000000000000000 ] # b
  - [    -0.000000005189519,     0.000000059213538,     4.120749009998803 ] # c
  points:
  - symbol: Li # 1
    coordinates: [  0.000000015066407,  0.000000002295811,  0.999999999851391 ]
    mass: 6.940000
  - symbol: Sn # 2
    coordinates: [  0.499999985252498,  0.499999997947564,  0.500000000135286 ]
    mass: 118.710000
  reciprocal_lattice: # without 2pi
  - [     0.312902712826163,     0.000000022053825,     0.000000000394058 ] # a*
  - [     0.000000000000000,     0.312902674873689,    -0.000000004496288 ] # b*
  - [     0.000000000000000,     0.000000000000000,     0.242674328762452 ] # c*

unit_cell:
  lattice:
  - [     3.195881528056814,     0.000000000000000,     0.000000000000000 ] # a
  - [    -0.000000225250275,     3.195881915690481,     0.000000000000000 ] # b
  - [    -0.000000005189519,     0.000000059213538,     4.120749009998803 ] # c
  points:
  - symbol: Li # 1
    coordinates: [  0.000000015066407,  0.000000002295811,  0.999999999851391 ]
    mass: 6.940000
    reduced_to: 1
  - symbol: Sn # 2
    coordinates: [  0.499999985252498,  0.499999997947564,  0.500000000135286 ]
    mass: 118.710000
    reduced_to: 2

supercell:
  lattice:
  - [    12.783526112227255,     0.000000000000000,     0.000000000000000 ] # a
  - [    -0.000000901001100,    12.783527662761925,     0.000000000000000 ] # b
  - [    -0.000000015568556,     0.000000177640613,    12.362247029996407 ] # c
  points:
  - symbol: Li # 1
    coordinates: [  0.000000003766602,  0.000000000573953,  0.333333333283797 ]
    mass: 6.940000
    reduced_to: 1
  - symbol: Li # 2
    coordinates: [  0.250000003766602,  0.000000000573953,  0.333333333283797 ]
    mass: 6.940000
    reduced_to: 1
  - symbol: Li # 3
    coordinates: [  0.500000003766602,  0.000000000573953,  0.333333333283797 ]
    mass: 6.940000
    reduced_to: 1
  - symbol: Li # 4
    coordinates: [  0.750000003766602,  0.000000000573953,  0.333333333283797 ]
    mass: 6.940000
    reduced_to: 1
  - symbol: Li # 5
    coordinates: [  0.000000003766602,  0.250000000573953,  0.333333333283797 ]
    mass: 6.940000
    reduced_to: 1
  - symbol: Li # 6
    coordinates: [  0.250000003766602,  0.250000000573953,  0.333333333283797 ]
    mass: 6.940000
    reduced_to: 1
  - symbol: Li # 7
    coordinates: [  0.500000003766602,  0.250000000573953,  0.333333333283797 ]
    mass: 6.940000
    reduced_to: 1
  - symbol: Li # 8
    coordinates: [  0.750000003766602,  0.250000000573953,  0.333333333283797 ]
    mass: 6.940000
    reduced_to: 1
  - symbol: Li # 9
    coordinates: [  0.000000003766602,  0.500000000573953,  0.333333333283797 ]
    mass: 6.940000
    reduced_to: 1
  - symbol: Li # 10
    coordinates: [  0.250000003766602,  0.500000000573953,  0.333333333283797 ]
    mass: 6.940000
    reduced_to: 1
  - symbol: Li # 11
    coordinates: [  0.500000003766602,  0.500000000573953,  0.333333333283797 ]
    mass: 6.940000
    reduced_to: 1
  - symbol: Li # 12
    coordinates: [  0.750000003766602,  0.500000000573953,  0.333333333283797 ]
    mass: 6.940000
    reduced_to: 1
  - symbol: Li # 13
    coordinates: [  0.000000003766602,  0.750000000573953,  0.333333333283797 ]
    mass: 6.940000
    reduced_to: 1
  - symbol: Li # 14
    coordinates: [  0.250000003766602,  0.750000000573953,  0.333333333283797 ]
    mass: 6.940000
    reduced_to: 1
  - symbol: Li # 15
    coordinates: [  0.500000003766602,  0.750000000573953,  0.333333333283797 ]
    mass: 6.940000
    reduced_to: 1
  - symbol: Li # 16
    coordinates: [  0.750000003766602,  0.750000000573953,  0.333333333283797 ]
    mass: 6.940000
    reduced_to: 1
  - symbol: Li # 17
    coordinates: [  0.000000003766602,  0.000000000573953,  0.666666666617130 ]
    mass: 6.940000
    reduced_to: 1
  - symbol: Li # 18
    coordinates: [  0.250000003766602,  0.000000000573953,  0.666666666617130 ]
    mass: 6.940000
    reduced_to: 1
  - symbol: Li # 19
    coordinates: [  0.500000003766602,  0.000000000573953,  0.666666666617130 ]
    mass: 6.940000
    reduced_to: 1
  - symbol: Li # 20
    coordinates: [  0.750000003766602,  0.000000000573953,  0.666666666617130 ]
    mass: 6.940000
    reduced_to: 1
  - symbol: Li # 21
    coordinates: [  0.000000003766602,  0.250000000573953,  0.666666666617130 ]
    mass: 6.940000
    reduced_to: 1
  - symbol: Li # 22
    coordinates: [  0.250000003766602,  0.250000000573953,  0.666666666617130 ]
    mass: 6.940000
    reduced_to: 1
  - symbol: Li # 23
    coordinates: [  0.500000003766602,  0.250000000573953,  0.666666666617130 ]
    mass: 6.940000
    reduced_to: 1
  - symbol: Li # 24
    coordinates: [  0.750000003766602,  0.250000000573953,  0.666666666617130 ]
    mass: 6.940000
    reduced_to: 1
  - symbol: Li # 25
    coordinates: [  0.000000003766602,  0.500000000573953,  0.666666666617130 ]
    mass: 6.940000
    reduced_to: 1
  - symbol: Li # 26
    coordinates: [  0.250000003766602,  0.500000000573953,  0.666666666617130 ]
    mass: 6.940000
    reduced_to: 1
  - symbol: Li # 27
    coordinates: [  0.500000003766602,  0.500000000573953,  0.666666666617130 ]
    mass: 6.940000
    reduced_to: 1
  - symbol: Li # 28
    coordinates: [  0.750000003766602,  0.500000000573953,  0.666666666617130 ]
    mass: 6.940000
    reduced_to: 1
  - symbol: Li # 29
    coordinates: [  0.000000003766602,  0.750000000573953,  0.666666666617130 ]
    mass: 6.940000
    reduced_to: 1
  - symbol: Li # 30
    coordinates: [  0.250000003766602,  0.750000000573953,  0.666666666617130 ]
    mass: 6.940000
    reduced_to: 1
  - symbol: Li # 31
    coordinates: [  0.500000003766602,  0.750000000573953,  0.666666666617130 ]
    mass: 6.940000
    reduced_to: 1
  - symbol: Li # 32
    coordinates: [  0.750000003766602,  0.750000000573953,  0.666666666617130 ]
    mass: 6.940000
    reduced_to: 1
  - symbol: Li # 33
    coordinates: [  0.000000003766602,  0.000000000573953,  0.999999999950464 ]
    mass: 6.940000
    reduced_to: 1
  - symbol: Li # 34
    coordinates: [  0.250000003766602,  0.000000000573953,  0.999999999950464 ]
    mass: 6.940000
    reduced_to: 1
  - symbol: Li # 35
    coordinates: [  0.500000003766602,  0.000000000573953,  0.999999999950464 ]
    mass: 6.940000
    reduced_to: 1
  - symbol: Li # 36
    coordinates: [  0.750000003766602,  0.000000000573953,  0.999999999950464 ]
    mass: 6.940000
    reduced_to: 1
  - symbol: Li # 37
    coordinates: [  0.000000003766602,  0.250000000573953,  0.999999999950464 ]
    mass: 6.940000
    reduced_to: 1
  - symbol: Li # 38
    coordinates: [  0.250000003766602,  0.250000000573953,  0.999999999950464 ]
    mass: 6.940000
    reduced_to: 1
  - symbol: Li # 39
    coordinates: [  0.500000003766602,  0.250000000573953,  0.999999999950464 ]
    mass: 6.940000
    reduced_to: 1
  - symbol: Li # 40
    coordinates: [  0.750000003766602,  0.250000000573953,  0.999999999950464 ]
    mass: 6.940000
    reduced_to: 1
  - symbol: Li # 41
    coordinates: [  0.000000003766602,  0.500000000573953,  0.999999999950464 ]
    mass: 6.940000
    reduced_to: 1
  - symbol: Li # 42
    coordinates: [  0.250000003766602,  0.500000000573953,  0.999999999950464 ]
    mass: 6.940000
    reduced_to: 1
  - symbol: Li # 43
    coordinates: [  0.500000003766602,  0.500000000573953,  0.999999999950464 ]
    mass: 6.940000
    reduced_to: 1
  - symbol: Li # 44
    coordinates: [  0.750000003766602,  0.500000000573953,  0.999999999950464 ]
    mass: 6.940000
    reduced_to: 1
  - symbol: Li # 45
    coordinates: [  0.000000003766602,  0.750000000573953,  0.999999999950464 ]
    mass: 6.940000
    reduced_to: 1
  - symbol: Li # 46
    coordinates: [  0.250000003766602,  0.750000000573953,  0.999999999950464 ]
    mass: 6.940000
    reduced_to: 1
  - symbol: Li # 47
    coordinates: [  0.500000003766602,  0.750000000573953,  0.999999999950464 ]
    mass: 6.940000
    reduced_to: 1
  - symbol: Li # 48
    coordinates: [  0.750000003766602,  0.750000000573953,  0.999999999950464 ]
    mass: 6.940000
    reduced_to: 1
  - symbol: Sn # 49
    coordinates: [  0.124999996313124,  0.124999999486891,  0.166666666711762 ]
    mass: 118.710000
    reduced_to: 49
  - symbol: Sn # 50
    coordinates: [  0.374999996313124,  0.124999999486891,  0.166666666711762 ]
    mass: 118.710000
    reduced_to: 49
  - symbol: Sn # 51
    coordinates: [  0.624999996313124,  0.124999999486891,  0.166666666711762 ]
    mass: 118.710000
    reduced_to: 49
  - symbol: Sn # 52
    coordinates: [  0.874999996313124,  0.124999999486891,  0.166666666711762 ]
    mass: 118.710000
    reduced_to: 49
  - symbol: Sn # 53
    coordinates: [  0.124999996313124,  0.374999999486891,  0.166666666711762 ]
    mass: 118.710000
    reduced_to: 49
  - symbol: Sn # 54
    coordinates: [  0.374999996313124,  0.374999999486891,  0.166666666711762 ]
    mass: 118.710000
    reduced_to: 49
  - symbol: Sn # 55
    coordinates: [  0.624999996313124,  0.374999999486891,  0.166666666711762 ]
    mass: 118.710000
    reduced_to: 49
  - symbol: Sn # 56
    coordinates: [  0.874999996313124,  0.374999999486891,  0.166666666711762 ]
    mass: 118.710000
    reduced_to: 49
  - symbol: Sn # 57
    coordinates: [  0.124999996313124,  0.624999999486891,  0.166666666711762 ]
    mass: 118.710000
    reduced_to: 49
  - symbol: Sn # 58
    coordinates: [  0.374999996313124,  0.624999999486891,  0.166666666711762 ]
    mass: 118.710000
    reduced_to: 49
  - symbol: Sn # 59
    coordinates: [  0.624999996313124,  0.624999999486891,  0.166666666711762 ]
    mass: 118.710000
    reduced_to: 49
  - symbol: Sn # 60
    coordinates: [  0.874999996313124,  0.624999999486891,  0.166666666711762 ]
    mass: 118.710000
    reduced_to: 49
  - symbol: Sn # 61
    coordinates: [  0.124999996313124,  0.874999999486891,  0.166666666711762 ]
    mass: 118.710000
    reduced_to: 49
  - symbol: Sn # 62
    coordinates: [  0.374999996313124,  0.874999999486891,  0.166666666711762 ]
    mass: 118.710000
    reduced_to: 49
  - symbol: Sn # 63
    coordinates: [  0.624999996313124,  0.874999999486891,  0.166666666711762 ]
    mass: 118.710000
    reduced_to: 49
  - symbol: Sn # 64
    coordinates: [  0.874999996313124,  0.874999999486891,  0.166666666711762 ]
    mass: 118.710000
    reduced_to: 49
  - symbol: Sn # 65
    coordinates: [  0.124999996313124,  0.124999999486891,  0.500000000045095 ]
    mass: 118.710000
    reduced_to: 49
  - symbol: Sn # 66
    coordinates: [  0.374999996313124,  0.124999999486891,  0.500000000045095 ]
    mass: 118.710000
    reduced_to: 49
  - symbol: Sn # 67
    coordinates: [  0.624999996313124,  0.124999999486891,  0.500000000045095 ]
    mass: 118.710000
    reduced_to: 49
  - symbol: Sn # 68
    coordinates: [  0.874999996313124,  0.124999999486891,  0.500000000045095 ]
    mass: 118.710000
    reduced_to: 49
  - symbol: Sn # 69
    coordinates: [  0.124999996313124,  0.374999999486891,  0.500000000045095 ]
    mass: 118.710000
    reduced_to: 49
  - symbol: Sn # 70
    coordinates: [  0.374999996313124,  0.374999999486891,  0.500000000045095 ]
    mass: 118.710000
    reduced_to: 49
  - symbol: Sn # 71
    coordinates: [  0.624999996313124,  0.374999999486891,  0.500000000045095 ]
    mass: 118.710000
    reduced_to: 49
  - symbol: Sn # 72
    coordinates: [  0.874999996313124,  0.374999999486891,  0.500000000045095 ]
    mass: 118.710000
    reduced_to: 49
  - symbol: Sn # 73
    coordinates: [  0.124999996313124,  0.624999999486891,  0.500000000045095 ]
    mass: 118.710000
    reduced_to: 49
  - symbol: Sn # 74
    coordinates: [  0.374999996313124,  0.624999999486891,  0.500000000045095 ]
    mass: 118.710000
    reduced_to: 49
  - symbol: Sn # 75
    coordinates: [  0.624999996313124,  0.624999999486891,  0.500000000045095 ]
    mass: 118.710000
    reduced_to: 49
  - symbol: Sn # 76
    coordinates: [  0.874999996313124,  0.624999999486891,  0.500000000045095 ]
    mass: 118.710000
    reduced_to: 49
  - symbol: Sn # 77
    coordinates: [  0.124999996313124,  0.874999999486891,  0.500000000045095 ]
    mass: 118.710000
    reduced_to: 49
  - symbol: Sn # 78
    coordinates: [  0.374999996313124,  0.874999999486891,  0.500000000045095 ]
    mass: 118.710000
    reduced_to: 49
  - symbol: Sn # 79
    coordinates: [  0.624999996313124,  0.874999999486891,  0.500000000045095 ]
    mass: 118.710000
    reduced_to: 49
  - symbol: Sn # 80
    coordinates: [  0.874999996313124,  0.874999999486891,  0.500000000045095 ]
    mass: 118.710000
    reduced_to: 49
  - symbol: Sn # 81
    coordinates: [  0.124999996313124,  0.124999999486891,  0.833333333378429 ]
    mass: 118.710000
    reduced_to: 49
  - symbol: Sn # 82
    coordinates: [  0.374999996313124,  0.124999999486891,  0.833333333378429 ]
    mass: 118.710000
    reduced_to: 49
  - symbol: Sn # 83
    coordinates: [  0.624999996313124,  0.124999999486891,  0.833333333378429 ]
    mass: 118.710000
    reduced_to: 49
  - symbol: Sn # 84
    coordinates: [  0.874999996313124,  0.124999999486891,  0.833333333378429 ]
    mass: 118.710000
    reduced_to: 49
  - symbol: Sn # 85
    coordinates: [  0.124999996313124,  0.374999999486891,  0.833333333378429 ]
    mass: 118.710000
    reduced_to: 49
  - symbol: Sn # 86
    coordinates: [  0.374999996313124,  0.374999999486891,  0.833333333378429 ]
    mass: 118.710000
    reduced_to: 49
  - symbol: Sn # 87
    coordinates: [  0.624999996313124,  0.374999999486891,  0.833333333378429 ]
    mass: 118.710000
    reduced_to: 49
  - symbol: Sn # 88
    coordinates: [  0.874999996313124,  0.374999999486891,  0.833333333378429 ]
    mass: 118.710000
    reduced_to: 49
  - symbol: Sn # 89
    coordinates: [  0.124999996313124,  0.624999999486891,  0.833333333378429 ]
    mass: 118.710000
    reduced_to: 49
  - symbol: Sn # 90
    coordinates: [  0.374999996313124,  0.624999999486891,  0.833333333378429 ]
    mass: 118.710000
    reduced_to: 49
  - symbol: Sn # 91
    coordinates: [  0.624999996313124,  0.624999999486891,  0.833333333378429 ]
    mass: 118.710000
    reduced_to: 49
  - symbol: Sn # 92
    coordinates: [  0.874999996313124,  0.624999999486891,  0.833333333378429 ]
    mass: 118.710000
    reduced_to: 49
  - symbol: Sn # 93
    coordinates: [  0.124999996313124,  0.874999999486891,  0.833333333378429 ]
    mass: 118.710000
    reduced_to: 49
  - symbol: Sn # 94
    coordinates: [  0.374999996313124,  0.874999999486891,  0.833333333378429 ]
    mass: 118.710000
    reduced_to: 49
  - symbol: Sn # 95
    coordinates: [  0.624999996313124,  0.874999999486891,  0.833333333378429 ]
    mass: 118.710000
    reduced_to: 49
  - symbol: Sn # 96
    coordinates: [  0.874999996313124,  0.874999999486891,  0.833333333378429 ]
    mass: 118.710000
    reduced_to: 49

displacements:
- atom:    1
  displacement:
    [   0.0071885240027785,  0.0000000000998921,  0.0069516273390824 ]
  forces:
  - [  -0.0089545845985413,  0.0000006207921501, -0.0155948940664530 ]
  - [   0.0013818810693920,  0.0000006856280947, -0.0002900962426793 ]
  - [  -0.0006190282292664,  0.0000001006162336, -0.0000062063336372 ]
  - [   0.0013539223000407,  0.0000005289912224, -0.0002927118912339 ]
  - [  -0.0004274727543816, -0.0000018863938749, -0.0002919301623479 ]
  - [   0.0001643351279199,  0.0000852830708027, -0.0001104579278035 ]
  - [   0.0000128906685859, -0.0000005217734724,  0.0000118861353258 ]
  - [   0.0001603104174137, -0.0000860751606524, -0.0001105153933167 ]
  - [  -0.0000491475439048,  0.0000003341313004, -0.0000064102932811 ]
  - [   0.0000195791944861,  0.0000001291045919,  0.0000120342447190 ]
  - [  -0.0000016354024410, -0.0000001973919694,  0.0000174306333065 ]
  - [   0.0000192681327462,  0.0000004246830940,  0.0000117290765047 ]
  - [  -0.0004274509847164,  0.0000012395903468, -0.0002923766151071 ]
  - [   0.0001640380360186, -0.0000858912244439, -0.0001116135535995 ]
  - [   0.0000129127874970,  0.0000010076910257,  0.0000103032216430 ]
  - [   0.0001608161255717,  0.0000854646787047, -0.0001104883849621 ]
  - [  -0.0002025461581070, -0.0000006858567758, -0.0001425240188837 ]
  - [  -0.0000464546028525,  0.0000003799505066, -0.0001481841900386 ]
  - [  -0.0000259121879935, -0.0000007359442407, -0.0000001601874828 ]
  - [   0.0000481093302369,  0.0000007981434464, -0.0000476688146591 ]
  - [   0.0002571584482212, -0.0000491845421493, -0.0000997627648758 ]
  - [  -0.0005489522591233, -0.0005844156257808, -0.0007266184547916 ]
  - [  -0.0000111603876576,  0.0000067052897066, -0.0000048478541430 ]
  - [   0.0000802366994321, -0.0000456287525594, -0.0000716634094715 ]
  - [  -0.0000028850276976, -0.0000006621412467, -0.0000009899958968 ]
  - [   0.0000141463242471,  0.0000002993037924,  0.0000006238260539 ]
  - [  -0.0000125761143863,  0.0000001211010385, -0.0000090943649411 ]
  - [   0.0000012787058949,  0.0000001052394509, -0.0000120345503092 ]
  - [   0.0002572312951088,  0.0000508595257998, -0.0000999262556434 ]
  - [  -0.0005484758876264,  0.0005840612575412, -0.0007270963396877 ]
  - [  -0.0000109439715743, -0.0000056251883507, -0.0000056456774473 ]
  - [   0.0000807512551546,  0.0000454504042864, -0.0000723944976926 ]
  - [  -0.0002005526330322,  0.0000001433654688, -0.0001364145136904 ]
  - [   0.0000500231981277,  0.0000004364701454, -0.0000516490399605 ]
  - [  -0.0000258199870586,  0.0000000800937414, -0.0000021626037778 ]
  - [  -0.0000528190284967,  0.0000002570450306, -0.0001531373709440 ]
  - [   0.0002551932993811,  0.0000489172525704, -0.0001000645570457 ]
  - [   0.0000825603492558,  0.0000472040846944, -0.0000762515410315 ]
  - [  -0.0000113921705633, -0.0000061630271375, -0.0000067171786213 ]
  - [  -0.0005435785278678,  0.0005767359398305, -0.0007182322442532 ]
  - [  -0.0000028153881431, -0.0000007117050700, -0.0000014631659724 ]
  - [   0.0000009229406714, -0.0000000387080945, -0.0000132053828565 ]
  - [  -0.0000128480605781, -0.0000009747163858, -0.0000087300722953 ]
  - [   0.0000127162784338,  0.0000001620501280,  0.0000002151355147 ]
  - [   0.0002544056624174, -0.0000484874472022, -0.0001000314950943 ]
  - [   0.0000823643058538, -0.0000469763763249, -0.0000765831355238 ]
  - [  -0.0000118575990200,  0.0000074449926615, -0.0000060154125094 ]
  - [  -0.0005428018048406, -0.0005774665623903, -0.0007177526131272 ]
  - [  -0.0008274728897959, -0.0008779627969489,  0.0009282650426030 ]
  - [   0.0000661422964185,  0.0000310240866384, -0.0000581098720431 ]
  - [  -0.0001608247403055,  0.0000049021746236, -0.0000268276198767 ]
  - [   0.0030008298344910, -0.0029427227564156,  0.0044838171452284 ]
  - [  -0.0000297515653074,  0.0000733904817025, -0.0000028265640140 ]
  - [  -0.0000143984798342, -0.0000212547056435, -0.0000071618705988 ]
  - [   0.0000681586097926, -0.0000610047172813, -0.0000161651405506 ]
  - [  -0.0000638724304736,  0.0001551121822558, -0.0000811297795735 ]
  - [  -0.0000300903375319, -0.0000724418860045, -0.0000006015761755 ]
  - [  -0.0000142354983836,  0.0000216102853301, -0.0000055190175772 ]
  - [   0.0000680964440107,  0.0000615458629909, -0.0000153720029630 ]
  - [  -0.0000654592222418, -0.0001550308807055, -0.0000816147075966 ]
  - [  -0.0008270181715488,  0.0008768868283369,  0.0009271745802835 ]
  - [   0.0000673905014992, -0.0000318382517435, -0.0000578386825509 ]
  - [  -0.0001616217195988, -0.0000055722775869, -0.0000265819835477 ]
  - [   0.0030010729096830,  0.0029423695523292,  0.0044840415939689 ]
  - [   0.0030968359205872,  0.0030547429341823,  0.0046128043904901 ]
  - [  -0.0001621295232326, -0.0000041818711907, -0.0000269990414381 ]
  - [   0.0000658330973238, -0.0000322038540617, -0.0000603629159741 ]
  - [  -0.0008174135582522,  0.0008667483925819,  0.0008988045156002 ]
  - [  -0.0000651024747640, -0.0001548990258016, -0.0000844066962600 ]
  - [   0.0000687032006681,  0.0000633235904388, -0.0000165086239576 ]
  - [  -0.0000139784533530,  0.0000215821746679, -0.0000078137964010 ]
  - [  -0.0000300577376038, -0.0000712187684258, -0.0000019147992134 ]
  - [  -0.0000655567127978,  0.0001556910574436, -0.0000838260166347 ]
  - [   0.0000693821348250, -0.0000629664864391, -0.0000168643891811 ]
  - [  -0.0000137768220156, -0.0000211810693145, -0.0000068758963607 ]
  - [  -0.0000296675316349,  0.0000714585185051, -0.0000031771487556 ]
  - [   0.0030970275402069, -0.0030552572570741,  0.0046145664528012 ]
  - [  -0.0001620538532734,  0.0000031142262742, -0.0000248961150646 ]
  - [   0.0000650584697723,  0.0000315556535497, -0.0000583973014727 ]
  - [  -0.0008172895759344, -0.0008672277908772,  0.0008983695879579 ]
  - [  -0.0000019848812371, -0.0000157696194947,  0.0000502762268297 ]
  - [   0.0000016861595213, -0.0000178334303200,  0.0000154361478053 ]
  - [   0.0000008933711797,  0.0000178086338565,  0.0000159007031471 ]
  - [  -0.0000003387685865,  0.0000151842832565,  0.0000497038126923 ]
  - [  -0.0000112734269351,  0.0000071078538895,  0.0000144027289934 ]
  - [   0.0000120929908007,  0.0000053739640862,  0.0000239625805989 ]
  - [   0.0000126620288938, -0.0000064219348133,  0.0000228654826060 ]
  - [  -0.0000115805887617, -0.0000078724697232,  0.0000151905696839 ]
  - [  -0.0000118549105537, -0.0000075995922089,  0.0000154753797688 ]
  - [   0.0000119963660836, -0.0000059355515987,  0.0000239804503508 ]
  - [   0.0000124082434922,  0.0000057406723499,  0.0000234237522818 ]
  - [  -0.0000115039765660,  0.0000082105398178,  0.0000148045364767 ]
  - [  -0.0000010998919606,  0.0000159697374329,  0.0000495626591146 ]
  - [   0.0000012908130884,  0.0000179613707587,  0.0000147310784087 ]
  - [   0.0000008456408978, -0.0000175532768480,  0.0000145040103234 ]
  - [  -0.0000003138557076, -0.0000160791096278,  0.0000501912436448 ]
- atom:   49
  displacement:
    [   0.0071885240027785,  0.0000000000998921,  0.0069516273390824 ]
  forces:
  - [  -0.0006474184338003, -0.0006966622313485,  0.0007169973105192 ]
  - [   0.0029179584234953, -0.0028806626796722,  0.0047959303483367 ]
  - [  -0.0000294728670269,  0.0000803323709988, -0.0001595336943865 ]
  - [  -0.0000640619546175, -0.0000029625371099,  0.0000750860199332 ]
  - [  -0.0006471998640336,  0.0006959422025830,  0.0007169907912612 ]
  - [   0.0029179318808019,  0.0028804074972868,  0.0047960402444005 ]
  - [  -0.0000295825884677, -0.0000807177275419, -0.0001598659437150 ]
  - [  -0.0000642538070679,  0.0000032070092857,  0.0000748327001929 ]
  - [  -0.0000090864723461,  0.0000018688635919, -0.0000233119353652 ]
  - [  -0.0000865983311087,  0.0000290642783511, -0.0000586470996495 ]
  - [   0.0000222960952669,  0.0000149730094563,  0.0000326875597239 ]
  - [   0.0000311778858304, -0.0000248989090323, -0.0000528646633029 ]
  - [  -0.0000091549009085, -0.0000009881332517, -0.0000243308022618 ]
  - [  -0.0000864756293595, -0.0000288859009743, -0.0000601801584708 ]
  - [   0.0000224402174354, -0.0000141263008118,  0.0000314125791192 ]
  - [   0.0000319117680192,  0.0000251503661275, -0.0000534905120730 ]
  - [  -0.0000031201868751, -0.0000175552231667,  0.0000482648611069 ]
  - [  -0.0000005848705769,  0.0000155112356879,  0.0000480051094200 ]
  - [   0.0000017620623112, -0.0000085257879618,  0.0000134231522679 ]
  - [   0.0000015599653125,  0.0000084172934294,  0.0000131018459797 ]
  - [  -0.0000030362459711,  0.0000170399434865,  0.0000484412448714 ]
  - [  -0.0000009601935744, -0.0000154515728354,  0.0000482814066345 ]
  - [   0.0000021618616302,  0.0000082235783339,  0.0000136219168780 ]
  - [   0.0000014095567167, -0.0000078645534813,  0.0000134212896228 ]
  - [  -0.0000121651919471,  0.0000173778389581,  0.0000128233805299 ]
  - [  -0.0000117779709399, -0.0000177393958438,  0.0000122635829030 ]
  - [   0.0000121917109936,  0.0000058843870647,  0.0000210404396057 ]
  - [   0.0000117747113109, -0.0000053346157074,  0.0000216225162148 ]
  - [  -0.0000127144157887, -0.0000165551900864,  0.0000133663415909 ]
  - [  -0.0000114939175546,  0.0000179940834641,  0.0000125919905258 ]
  - [   0.0000127339735627, -0.0000050924718380,  0.0000217296183109 ]
  - [   0.0000121658667922,  0.0000054845586419,  0.0000215554609895 ]
  - [   0.0028221518732607,  0.0027608685195446,  0.0046681775711477 ]
  - [  -0.0006442242302001,  0.0006945070344955,  0.0007401150069200 ]
  - [  -0.0000623411033303,  0.0000022711465135,  0.0000752243358875 ]
  - [  -0.0000343620777130, -0.0000811507925391, -0.0001592850312591 ]
  - [   0.0028225672431290, -0.0027605518698692,  0.0046679070219398 ]
  - [  -0.0006440514698625, -0.0006943568587303,  0.0007407444063574 ]
  - [  -0.0000620816135779, -0.0000020116567612,  0.0000756119115977 ]
  - [  -0.0000350805930793,  0.0000808583572507, -0.0001592030748725 ]
  - [  -0.0000872793607414, -0.0000301183899865, -0.0000612108851783 ]
  - [  -0.0000092023983598, -0.0000025367480703, -0.0000240392691921 ]
  - [   0.0000312905758619,  0.0000234113540500, -0.0000543283676961 ]
  - [   0.0000218460336328, -0.0000161277130246,  0.0000312225893140 ]
  - [  -0.0000877277925611,  0.0000299904495478, -0.0000614449381828 ]
  - [  -0.0000090822577477,  0.0000030915252864, -0.0000244349794229 ]
  - [   0.0000316444784403, -0.0000232551246881, -0.0000545792281628 ]
  - [   0.0000227047130466,  0.0000160466879606,  0.0000311899930239 ]
  - [  -0.0182065665721893,  0.0000006152333754, -0.0197726152837276 ]
  - [   0.0036864536814392,  0.0000002769342302,  0.0000342773273587 ]
  - [   0.0020435815677047,  0.0000003540616547,  0.0001391156692989 ]
  - [   0.0035481750965118, -0.0000000748680193,  0.0000477862777188 ]
  - [  -0.0002475832588971, -0.0000197522513190,  0.0000396156683564 ]
  - [   0.0004694510716945,  0.0007359522278421,  0.0000319397076964 ]
  - [  -0.0001789424568415,  0.0000005054131407,  0.0000207516131923 ]
  - [   0.0004595206119120, -0.0007269546040334,  0.0000333465868607 ]
  - [   0.0001799365272745,  0.0000003277010023,  0.0001399602624588 ]
  - [  -0.0000116250012070, -0.0000003007090754,  0.0000223480165005 ]
  - [  -0.0000546949449927,  0.0000001710060076,  0.0000050702947192 ]
  - [  -0.0000089920731625,  0.0000000790380952,  0.0000210478319786 ]
  - [  -0.0002477690577507,  0.0000190952559933,  0.0000416878610849 ]
  - [   0.0004705898463726, -0.0007363558979705,  0.0000330286566168 ]
  - [  -0.0001797266304493, -0.0000012600794435,  0.0000214749015868 ]
  - [   0.0004602080443874,  0.0007263670559041,  0.0000335220247507 ]
  - [   0.0002390178851783,  0.0000000961590558, -0.0000438988208771 ]
  - [   0.0001858638133854, -0.0000004353933036,  0.0002009291201830 ]
  - [  -0.0001128620933741, -0.0000007603666745, -0.0000223856186494 ]
  - [  -0.0003067142679356, -0.0000006351619959, -0.0003030942752957 ]
  - [   0.0000745442230254,  0.0002480607363395, -0.0000528199598193 ]
  - [  -0.0003271561581641, -0.0003724501584657, -0.0004230784252286 ]
  - [   0.0000451616942883,  0.0000036816886677, -0.0000120117329061 ]
  - [   0.0000716715003364, -0.0000234614744841, -0.0000095050781965 ]
  - [   0.0000082905862655, -0.0000006090849638, -0.0000212861341424 ]
  - [  -0.0000016242265701, -0.0000007804483175, -0.0000089770182967 ]
  - [   0.0000021553132683, -0.0000000705476850, -0.0000029954244383 ]
  - [  -0.0000072638431448, -0.0000005178153515, -0.0000147875398397 ]
  - [   0.0000754250213504, -0.0002473311615176, -0.0000518150627613 ]
  - [  -0.0003268606960773,  0.0003730577882379, -0.0004221592098475 ]
  - [   0.0000446699559689, -0.0000029537477531, -0.0000107167870738 ]
  - [   0.0000712908804417,  0.0000239028013311, -0.0000106170773506 ]
  - [   0.0002336662728339,  0.0000003571622074, -0.0000199381029233 ]
  - [  -0.0003031746018678,  0.0000000735744834, -0.0003022065502591 ]
  - [  -0.0001130001619458, -0.0000000497093424, -0.0000184316886589 ]
  - [   0.0001859879703261, -0.0000003091990948,  0.0002058494137600 ]
  - [   0.0000727330334485, -0.0002444579731673, -0.0000471445382573 ]
  - [   0.0000719877425581,  0.0000249752774835, -0.0000103923375718 ]
  - [   0.0000458934810013, -0.0000030670780689, -0.0000099048484117 ]
  - [  -0.0003243838436902,  0.0003711767494678, -0.0004196825320832 ]
  - [   0.0000080765576058,  0.0000001734588295, -0.0000182468211278 ]
  - [  -0.0000074284616858, -0.0000002651941031, -0.0000116117880680 ]
  - [   0.0000018496066332, -0.0000001084990799, -0.0000007743365131 ]
  - [  -0.0000017547308744,  0.0000003017485142, -0.0000064189662226 ]
  - [   0.0000723646953702,  0.0002438926021568, -0.0000466332421638 ]
  - [   0.0000714780762792, -0.0000254247570410, -0.0000107792438939 ]
  - [   0.0000448226928711,  0.0000028472859412, -0.0000098363962024 ]
  - [  -0.0003238385543227, -0.0003717223880813, -0.0004200045368634 ]

force_constants:
  format: "full"
  shape: [ 96, 96 ]
  elements:
  - # (1, 1)
    - [     1.245649443184668,     0.000000000989466,    -0.000000000665232 ]
    - [     0.000000000989466,     1.245649440915064,     0.000000007097657 ]
    - [    -0.000000000665232,     0.000000007097657,     2.243303130212166 ]
  - # (1, 2)
    - [    -0.190318004533734,    -0.000000005052114,    -0.000000000288430 ]
    - [    -0.000000022218613,     0.059436141206130,    -0.000000000456135 ]
    - [     0.000000001280151,    -0.000000000522561,     0.041931481303638 ]
  - # (1, 3)
    - [     0.086085073376034,     0.000000003750705,    -0.000000000050417 ]
    - [     0.000000004904331,     0.006808608064061,    -0.000000000063674 ]