# Thermal properties / unit cell (natom)

unit:
  temperature:   K
  free_energy:   kJ/mol
  entropy:       J/K/mol
  heat_capacity: J/K/mol

natom: 2    
cutoff_frequency: 0.00000
num_modes: 138384
num_integrated_modes: 138381

zero_point_energy:       5.5849838

thermal_properties:
- temperature:         0.0000000
  free_energy:         5.5849838
  entropy:             0.0000000
  heat_capacity:       0.0000000
  energy:              5.5849838

- temperature:        10.0000000
  free_energy:         5.5843334
  entropy:             0.2738173
  heat_capacity:       0.8922852
  energy:              5.5870715

- temperature:        20.0000000
  free_energy:         5.5732243
  entropy:             2.3392365
  heat_capacity:       6.3297814
  energy:              5.6200090

- temperature:        30.0000000
  free_energy:         5.5317821
  entropy:             6.1090098
  heat_capacity:      12.4244563
  energy:              5.7150524

- temperature:        40.0000000
  free_energy:         5.4496473
  entropy:            10.3302405
  heat_capacity:      16.9037830
  energy:              5.8628569

- temperature:        50.0000000
  free_energy:         5.3254277
  entropy:            14.4884595
  heat_capacity:      20.3872271
  energy:              6.0498507

- temperature:        60.0000000
  free_energy:         5.1604501
  entropy:            18.4777758
  heat_capacity:      23.4129886
  energy:              6.2691166

- temperature:        70.0000000
  free_energy:         4.9564398
  entropy:            22.2970322
  heat_capacity:      26.1705058
  energy:              6.5172321

- temperature:        80.0000000
  free_energy:         4.7150335
  entropy:            25.9589123
  heat_capacity:      28.6929327
  energy:              6.7917464

- temperature:        90.0000000
  free_energy:         4.4377552
  entropy:            29.4725722
  heat_capacity:      30.9743717
  energy:              7.0902867

- temperature:       100.0000000
  free_energy:         4.1260573
  entropy:            32.8436167
  heat_capacity:      33.0117322
  energy:              7.4104189

- temperature:       110.0000000
  free_energy:         3.7813442
  entropy:            36.0762683
  heat_capacity:      34.8130996
  energy:              7.7497337

- temperature:       120.0000000
  free_energy:         3.4049792
  entropy:            39.1747583
  heat_capacity:      36.3953906
  energy:              8.1059502

- temperature:       130.0000000
  free_energy:         2.9982804
  entropy:            42.1438671
  heat_capacity:      37.7801929
  energy:              8.4769831

- temperature:       140.0000000
  free_energy:         2.5625152
  entropy:            44.9889793
  heat_capacity:      38.9904512
  energy:              8.8609723

- temperature:       150.0000000
  free_energy:         2.0988947
  entropy:            47.7159329
  heat_capacity:      40.0483945
  energy:              9.2562846

- temperature:       160.0000000
  free_energy:         1.6085701
  entropy:            50.3308168
  heat_capacity:      40.9744456
  energy:              9.6615008

- temperature:       170.0000000
  free_energy:         1.0926314
  entropy:            52.8397843
  heat_capacity:      41.7867741
  energy:             10.0753947

- temperature:       180.0000000
  free_energy:         0.5521072
  entropy:            55.2489058
  heat_capacity:      42.5012268
  energy:             10.4969103

- temperature:       190.0000000
  free_energy:        -0.0120335
  entropy:            57.5640646
  heat_capacity:      43.1314553
  energy:             10.9251387

- temperature:       200.0000000
  free_energy:        -0.5988796
  entropy:            59.7908869
  heat_capacity:      43.6891341
  energy:             11.3592977

- temperature:       210.0000000
  free_energy:        -1.2075746
  entropy:            61.9347024
  heat_capacity:      44.1842061
  energy:             11.7987129

- temperature:       220.0000000
  free_energy:        -1.8373137
  entropy:            64.0005238
  heat_capacity:      44.6251249
  energy:             12.2428015

- temperature:       230.0000000
  free_energy:        -2.4873408
  entropy:            65.9930423
  heat_capacity:      45.0190758
  energy:             12.6910589

- temperature:       240.0000000
  free_energy:        -3.1569449
  entropy:            67.9166325
  heat_capacity:      45.3721717
  energy:             13.1430469

- temperature:       250.0000000
  free_energy:        -3.8454573
  entropy:            69.7753637
  heat_capacity:      45.6896209
  energy:             13.5983836

- temperature:       260.0000000
  free_energy:        -4.5522486
  entropy:            71.5730154
  heat_capacity:      45.9758715
  energy:             14.0567354

- temperature:       270.0000000
  free_energy:        -5.2767257
  entropy:            73.3130946
  heat_capacity:      46.2347306
  energy:             14.5178098

- temperature:       280.0000000
  free_energy:        -6.0183294
  entropy:            74.9988539
  heat_capacity:      46.4694666
  energy:             14.9813497

- temperature:       290.0000000
  free_energy:        -6.7765318
  entropy:            76.6333102
  heat_capacity:      46.6828930
  energy:             15.4471282

- temperature:       300.0000000
  free_energy:        -7.5508340
  entropy:            78.2192620
  heat_capacity:      46.8774387
  energy:             15.9149446

- temperature:       310.0000000
  free_energy:        -8.3407640
  entropy:            79.7593067
  heat_capacity:      47.0552074
  energy:             16.3846210

- temperature:       320.0000000
  free_energy:        -9.1458751
  entropy:            81.2558566
  heat_capacity:      47.2180262
  energy:             16.8559990

- temperature:       330.0000000
  free_energy:        -9.9657437
  entropy:            82.7111538
  heat_capacity:      47.3674865
  energy:             17.3289371

- temperature:       340.0000000
  free_energy:       -10.7999677
  entropy:            84.1272838
  heat_capacity:      47.5049791
  energy:             17.8033088

- temperature:       350.0000000
  free_energy:       -11.6481653
  entropy:            85.5061889
  heat_capacity:      47.6317223
  energy:             18.2790008

- temperature:       360.0000000
  free_energy:       -12.5099734
  entropy:            86.8496790
  heat_capacity:      47.7487866
  energy:             18.7559110

- temperature:       370.0000000
  free_energy:       -13.3850465
  entropy:            88.1594430
  heat_capacity:      47.8571153
  energy:             19.2339475

- temperature:       380.0000000
  free_energy:       -14.2730551
  entropy:            89.4370582
  heat_capacity:      47.9575417
  energy:             19.7130270

- temperature:       390.0000000
  free_energy:       -15.1736854
  entropy:            90.6839995
  heat_capacity:      48.0508036
  energy:             20.1930744

- temperature:       400.0000000
  free_energy:       -16.0866375
  entropy:            91.9016472
  heat_capacity:      48.1375563
  energy:             20.6740214

- temperature:       410.0000000
  free_energy:       -17.0116250
  entropy:            93.0912946
  heat_capacity:      48.2183829
  energy:             21.1558058

- temperature:       420.0000000
  free_energy:       -17.9483741
  entropy:            94.2541551
  heat_capacity:      48.2938039
  energy:             21.6383710

- temperature:       430.0000000
  free_energy:       -18.8966226
  entropy:            95.3913675
  heat_capacity:      48.3642843
  energy:             22.1216654

- temperature:       440.0000000
  free_energy:       -19.8561195
  entropy:            96.5040027
  heat_capacity:      48.4302411
  energy:             22.6056416

- temperature:       450.0000000
  free_energy:       -20.8266241
  entropy:            97.5930678
  heat_capacity:      48.4920486
  energy:             23.0902564

- temperature:       460.0000000
  free_energy:       -21.8079055
  entropy:            98.6595117
  heat_capacity:      48.5500439
  energy:             23.5754699

- temperature:       470.0000000
  free_energy:       -22.7997419
  entropy:            99.7042288
  heat_capacity:      48.6045306
  energy:             24.0612456

- temperature:       480.0000000
  free_energy:       -23.8019205
  entropy:           100.7280629
  heat_capacity:      48.6557833
  energy:             24.5475497

- temperature:       490.0000000
  free_energy:       -24.8142362
  entropy:           101.7318113
  heat_capacity:      48.7040504
  energy:             25.0343513

- temperature:       500.0000000
  free_energy:       -25.8364922
  entropy:           102.7162276
  heat_capacity:      48.7495571
  energy:             25.5216216

- temperature:       510.0000000
  free_energy:       -26.8684987
  entropy:           103.6820248
  heat_capacity:      48.7925081
  energy:             26.0093339

- temperature:       520.0000000
  free_energy:       -27.9100729
  entropy:           104.6298784
  heat_capacity:      48.8330894
  energy:             26.4974638

- temperature:       530.0000000
  free_energy:       -28.9610386
  entropy:           105.5604283
  heat_capacity:      48.8714709
  energy:             26.9859884

- temperature:       540.0000000
  free_energy:       -30.0212258
  entropy:           106.4742820
  heat_capacity:      48.9078074
  energy:             27.4748864

- temperature:       550.0000000
  free_energy:       -31.0904705
  entropy:           107.3720159
  heat_capacity:      48.9422405
  energy:             27.9641382

- temperature:       560.0000000
  free_energy:       -32.1686143
  entropy:           108.2541778
  heat_capacity:      48.9748998
  energy:             28.4537253

- temperature:       570.0000000
  free_energy:       -33.2555039
  entropy:           109.1212888
  heat_capacity:      49.0059043
  energy:             28.9436307

- temperature:       580.0000000
  free_energy:       -34.3509915
  entropy:           109.9738445
  heat_capacity:      49.0353631
  energy:             29.4338383

- temperature:       590.0000000
  free_energy:       -35.4549339
  entropy:           110.8123169
  heat_capacity:      49.0633765
  energy:             29.9243331

- temperature:       600.0000000
  free_energy:       -36.5671924
  entropy:           111.6371562
  heat_capacity:      49.0900370
  energy:             30.4151013

- temperature:       610.0000000
  free_energy:       -37.6876330
  entropy:           112.4487912
  heat_capacity:      49.1154297
  energy:             30.9061296

- temperature:       620.0000000
  free_energy:       -38.8161256
  entropy:           113.2476315
  heat_capacity:      49.1396334
  energy:             31.3974059

- temperature:       630.0000000
  free_energy:       -39.9525443
  entropy:           114.0340680
  heat_capacity:      49.1627206
  energy:             31.8889186

- temperature:       640.0000000
  free_energy:       -41.0967669
  entropy:           114.8084745
  heat_capacity:      49.1847585
  energy:             32.3806568

- temperature:       650.0000000
  free_energy:       -42.2486749
  entropy:           115.5712082
  heat_capacity:      49.2058095
  energy:             32.8726105

- temperature:       660.0000000
  free_energy:       -43.4081533
  entropy:           116.3226109
  heat_capacity:      49.2259313
  energy:             33.3647699

- temperature:       670.0000000
  free_energy:       -44.5750904
  entropy:           117.0630098
  heat_capacity:      49.2451776
  energy:             33.8571262

- temperature:       680.0000000
  free_energy:       -45.7493778
  entropy:           117.7927184
  heat_capacity:      49.2635980
  energy:             34.3496707

- temperature:       690.0000000
  free_energy:       -46.9309101
  entropy:           118.5120372
  heat_capacity:      49.2812390
  energy:             34.8423955

- temperature:       700.0000000
  free_energy:       -48.1195849
  entropy:           119.2212542
  heat_capacity:      49.2981437
  energy:             35.3352930

- temperature:       710.0000000
  free_energy:       -49.3153025
  entropy:           119.9206459
  heat_capacity:      49.3143524
  energy:             35.8283561

- temperature:       720.0000000
  free_energy:       -50.5179659
  entropy:           120.6104776
  heat_capacity:      49.3299025
  energy:             36.3215779

- temperature:       730.0000000
  free_energy:       -51.7274810
  entropy:           121.2910042
  heat_capacity:      49.3448292
  energy:             36.8149521

- temperature:       740.0000000
  free_energy:       -52.9437558
  entropy:           121.9624707
  heat_capacity:      49.3591650
  energy:             37.3084725

- temperature:       750.0000000
  free_energy:       -54.1667010
  entropy:           122.6251127
  heat_capacity:      49.3729408
  energy:             37.8021335

- temperature:       760.0000000
  free_energy:       -55.3962294
  entropy:           123.2791566
  heat_capacity:      49.3861851
  energy:             38.2959296

- temperature:       770.0000000
  free_energy:       -56.6322562
  entropy:           123.9248204
  heat_capacity:      49.3989249
  energy:             38.7898555

- temperature:       780.0000000
  free_energy:       -57.8746986
  entropy:           124.5623142
  heat_capacity:      49.4111854
  energy:             39.2839065

- temperature:       790.0000000
  free_energy:       -59.1234759
  entropy:           125.1918400
  heat_capacity:      49.4229901
  energy:             39.7780777

- temperature:       800.0000000
  free_energy:       -60.3785095
  entropy:           125.8135929
  heat_capacity:      49.4343614
  energy:             40.2723648

- temperature:       810.0000000
  free_energy:       -61.6397225
  entropy:           126.4277606
  heat_capacity:      49.4453202
  energy:             40.7667636

- temperature:       820.0000000
  free_energy:       -62.9070400
  entropy:           127.0345243
  heat_capacity:      49.4558860
  energy:             41.2612699

- temperature:       830.0000000
  free_energy:       -64.1803889
  entropy:           127.6340589
  heat_capacity:      49.4660774
  energy:             41.7558800

- temperature:       840.0000000
  free_energy:       -65.4596977
  entropy:           128.2265333
  heat_capacity:      49.4759118
  energy:             42.2505903

- temperature:       850.0000000
  free_energy:       -66.7448966
  entropy:           128.8121102
  heat_capacity:      49.4854056
  energy:             42.7453971

- temperature:       860.0000000
  free_energy:       -68.0359174
  entropy:           129.3909473
  heat_capacity:      49.4945744
  energy:             43.2402973

- temperature:       870.0000000
  free_energy:       -69.3326936
  entropy:           129.9631967
  heat_capacity:      49.5034327
  energy:             43.7352876

- temperature:       880.0000000
  free_energy:       -70.6351599
  entropy:           130.5290055
  heat_capacity:      49.5119944
  energy:             44.2303650

- temperature:       890.0000000
  free_energy:       -71.9432527
  entropy:           131.0885160
  heat_capacity:      49.5202725
  energy:             44.7255265

- temperature:       900.0000000
  free_energy:       -73.2569097
  entropy:           131.6418657
  heat_capacity:      49.5282794
  energy:             45.2207695

- temperature:       910.0000000
  free_energy:       -74.5760699
  entropy:           132.1891881
  heat_capacity:      49.5360268
  energy:             45.7160913

- temperature:       920.0000000
  free_energy:       -75.9006738
  entropy:           132.7306119
  heat_capacity:      49.5435257
  energy:             46.2114892

- temperature:       930.0000000
  free_energy:       -77.2306629
  entropy:           133.2662622
  heat_capacity:      49.5507866
  energy:             46.7069610

- temperature:       940.0000000
  free_energy:       -78.5659802
  entropy:           133.7962599
  heat_capacity:      49.5578194
  energy:             47.2025042

- temperature:       950.0000000
  free_energy:       -79.9065696
  entropy:           134.3207224
  heat_capacity:      49.5646337
  energy:             47.6981166

- temperature:       960.0000000
  free_energy:       -81.2523765
  entropy:           134.8397632
  heat_capacity:      49.5712382
  energy:             48.1937962

- temperature:       970.0000000
  free_energy:       -82.6033472
  entropy:           135.3534927
  heat_capacity:      49.5776416
  energy:             48.6895407

- temperature:       980.0000000
  free_energy:       -83.9594290
  entropy:           135.8620177
  heat_capacity:      49.5838519
  energy:             49.1853484

- temperature:       990.0000000
  free_energy:       -85.3205705
  entropy:           136.3654421
  heat_capacity:      49.5898767
  energy:             49.6812171

- temperature:      1000.0000000
  free_energy:       -86.6867212
  entropy:           136.8638665
  heat_capacity:      49.5957234
  energy:             50.1771453
