# Thermal properties / unit cell (natom)

unit:
  temperature:   K
  free_energy:   kJ/mol
  entropy:       J/K/mol
  heat_capacity: J/K/mol

natom: 12   
cutoff_frequency: 0.00000
num_modes: 220320
num_integrated_modes: 220320

zero_point_energy:      44.7444431

thermal_properties:
- temperature:         0.0000000
  free_energy:        44.7444431
  entropy:             0.0000000
  heat_capacity:       0.0000000
  energy:             44.7444431

- temperature:        10.0000000
  free_energy:        44.7421275
  entropy:             0.8754455
  heat_capacity:       2.9722177
  energy:             44.7508820

- temperature:        20.0000000
  free_energy:        44.7060863
  entropy:             7.5150352
  heat_capacity:      19.8795439
  energy:             44.8563870

- temperature:        30.0000000
  free_energy:        44.5736255
  entropy:            19.6063212
  heat_capacity:      41.2318808
  energy:             45.1618151

- temperature:        40.0000000
  free_energy:        44.3055252
  entropy:            34.2795614
  heat_capacity:      61.4361862
  energy:             45.6767077

- temperature:        50.0000000
  free_energy:        43.8846288
  entropy:            50.0030289
  heat_capacity:      79.9408429
  energy:             46.3847803

- temperature:        60.0000000
  free_energy:        43.3041667
  entropy:            66.1275311
  heat_capacity:      97.3217777
  energy:             47.2718186

- temperature:        70.0000000
  free_energy:        42.5616425
  entropy:            82.3865303
  heat_capacity:     113.9356603
  energy:             48.3286996

- temperature:        80.0000000
  free_energy:        41.6564414
  entropy:            98.6450060
  heat_capacity:     129.7976584
  energy:             49.5480419

- temperature:        90.0000000
  free_energy:        40.5890661
  entropy:           114.8067760
  heat_capacity:     144.7666754
  energy:             50.9216759

- temperature:       100.0000000
  free_energy:        39.3609026
  entropy:           130.7899079
  heat_capacity:     158.6931603
  energy:             52.4398934

- temperature:       110.0000000
  free_energy:        37.9740994
  entropy:           146.5240425
  heat_capacity:     171.4834297
  energy:             54.0917440

- temperature:       120.0000000
  free_energy:        36.4314440
  entropy:           161.9519510
  heat_capacity:     183.1103829
  energy:             55.8656782

- temperature:       130.0000000
  free_energy:        34.7362272
  entropy:           177.0302549
  heat_capacity:     193.6011152
  energy:             57.7501603

- temperature:       140.0000000
  free_energy:        32.8921065
  entropy:           191.7286825
  heat_capacity:     203.0189716
  energy:             59.7341220

- temperature:       150.0000000
  free_energy:        30.9029836
  entropy:           206.0283847
  heat_capacity:     211.4475738
  energy:             61.8072413

- temperature:       160.0000000
  free_energy:        28.7729002
  entropy:           219.9198911
  heat_capacity:     218.9789819
  energy:             63.9600828

- temperature:       170.0000000
  free_energy:        26.5059541
  entropy:           233.4010914
  heat_capacity:     225.7058483
  energy:             66.1841397

- temperature:       180.0000000
  free_energy:        24.1062350
  entropy:           246.4754376
  heat_capacity:     231.7166932
  energy:             68.4718138

- temperature:       190.0000000
  free_energy:        21.5777768
  entropy:           259.1504405
  heat_capacity:     237.0933757
  energy:             70.8163605

- temperature:       200.0000000
  free_energy:        18.9245230
  entropy:           271.4364616
  heat_capacity:     241.9100009
  energy:             73.2118154

- temperature:       210.0000000
  free_energy:        16.1503034
  entropy:           283.3457695
  heat_capacity:     246.2327130
  energy:             75.6529150

- temperature:       220.0000000
  free_energy:        13.2588186
  entropy:           294.8918200
  heat_capacity:     250.1199982
  energy:             78.1350190

- temperature:       230.0000000
  free_energy:        10.2536309
  entropy:           306.0887161
  heat_capacity:     253.6232550
  energy:             80.6540356

- temperature:       240.0000000
  free_energy:         7.1381603
  entropy:           316.9508098
  heat_capacity:     256.7874801
  energy:             83.2063546

- temperature:       250.0000000
  free_energy:         3.9156830
  entropy:           327.4924148
  heat_capacity:     259.6519795
  energy:             85.7887867

- temperature:       260.0000000
  free_energy:         0.5893333
  entropy:           337.7276024
  heat_capacity:     262.2510544
  energy:             88.3985099

- temperature:       270.0000000
  free_energy:        -2.8378934
  entropy:           347.6700613
  heat_capacity:     264.6146346
  energy:             91.0330232

- temperature:       280.0000000
  free_energy:        -6.3631363
  entropy:           357.3330049
  heat_capacity:     266.7688502
  energy:             93.6901051

- temperature:       290.0000000
  free_energy:        -9.9836641
  entropy:           366.7291132
  heat_capacity:     268.7365367
  energy:             96.3677787

- temperature:       300.0000000
  free_energy:       -13.6968695
  entropy:           375.8705016
  heat_capacity:     270.5376780
  energy:             99.0642810

- temperature:       310.0000000
  free_energy:       -17.5002636
  entropy:           384.7687076
  heat_capacity:     272.1897903
  energy:            101.7780358

- temperature:       320.0000000
  free_energy:       -21.3914697
  entropy:           393.4346911
  heat_capacity:     273.7082549
  energy:            104.5076315

- temperature:       330.0000000
  free_energy:       -25.3682180
  entropy:           401.8788445
  heat_capacity:     275.1066044
  energy:            107.2518007

- temperature:       340.0000000
  free_energy:       -29.4283400
  entropy:           410.1110091
  heat_capacity:     276.3967687
  energy:            110.0094031

- temperature:       350.0000000
  free_energy:       -33.5697627
  entropy:           418.1404953
  heat_capacity:     277.5892870
  energy:            112.7794107

- temperature:       360.0000000
  free_energy:       -37.7905037
  entropy:           425.9761063
  heat_capacity:     278.6934888
  energy:            115.5608946

- temperature:       370.0000000
  free_energy:       -42.0886663
  entropy:           433.6261624
  heat_capacity:     279.7176508
  energy:            118.3530138

- temperature:       380.0000000
  free_energy:       -46.4624347
  entropy:           441.0985265
  heat_capacity:     280.6691305
  energy:            121.1550054

- temperature:       390.0000000
  free_energy:       -50.9100694
  entropy:           448.4006292
  heat_capacity:     281.5544826
  energy:            123.9661760

- temperature:       400.0000000
  free_energy:       -55.4299032
  entropy:           455.5394934
  heat_capacity:     282.3795579
  energy:            126.7858942

- temperature:       410.0000000
  free_energy:       -60.0203373
  entropy:           462.5217586
  heat_capacity:     283.1495899
  energy:            129.6135838

- temperature:       420.0000000
  free_energy:       -64.6798373
  entropy:           469.3537036
  heat_capacity:     283.8692691
  energy:            132.4487182

- temperature:       430.0000000
  free_energy:       -69.4069301
  entropy:           476.0412686
  heat_capacity:     284.5428078
  energy:            135.2908154

- temperature:       440.0000000
  free_energy:       -74.2002002
  entropy:           482.5900760
  heat_capacity:     285.1739953
  energy:            138.1394332

- temperature:       450.0000000
  free_energy:       -79.0582869
  entropy:           489.0054499
  heat_capacity:     285.7662478
  energy:            140.9941656

- temperature:       460.0000000
  free_energy:       -83.9798813
  entropy:           495.2924347
  heat_capacity:     286.3226497
  energy:            143.8546387

- temperature:       470.0000000
  free_energy:       -88.9637236
  entropy:           501.4558127
  heat_capacity:     286.8459915
  energy:            146.7205084

- temperature:       480.0000000
  free_energy:       -94.0086006
  entropy:           507.5001197
  heat_capacity:     287.3388017
  energy:            149.5914568

- temperature:       490.0000000
  free_energy:       -99.1133434
  entropy:           513.4296607
  heat_capacity:     287.8033755
  energy:            152.4671903

- temperature:       500.0000000
  free_energy:      -104.2768249
  entropy:           519.2485242
  heat_capacity:     288.2417997
  energy:            155.3474372

- temperature:       510.0000000
  free_energy:      -109.4979580
  entropy:           524.9605950
  heat_capacity:     288.6559745
  energy:            158.2319455

- temperature:       520.0000000
  free_energy:      -114.7756932
  entropy:           530.5695670
  heat_capacity:     289.0476330
  energy:            161.1204816

- temperature:       530.0000000
  free_energy:      -120.1090174
  entropy:           536.0789543
  heat_capacity:     289.4183581
  energy:            164.0128284

- temperature:       540.0000000
  free_energy:      -125.4969515
  entropy:           541.4921025
  heat_capacity:     289.7695981
  energy:            166.9087838

- temperature:       550.0000000
  free_energy:      -130.9385493
  entropy:           546.8121984
  heat_capacity:     290.1026792
  energy:            169.8081598

- temperature:       560.0000000
  free_energy:      -136.4328954
  entropy:           552.0422793
  heat_capacity:     290.4188185
  energy:            172.7107810

- temperature:       570.0000000
  free_energy:      -141.9791045
  entropy:           557.1852420
  heat_capacity:     290.7191335
  energy:            175.6164835

- temperature:       580.0000000
  free_energy:      -147.5763191
  entropy:           562.2438508
  heat_capacity:     291.0046523
  energy:            178.5251143

- temperature:       590.0000000
  free_energy:      -153.2237091
  entropy:           567.2207449
  heat_capacity:     291.2763217
  energy:            181.4365304

- temperature:       600.0000000
  free_energy:      -158.9204701
  entropy:           572.1184459
  heat_capacity:     291.5350146
  energy:            184.3505975

- temperature:       610.0000000
  free_energy:      -164.6658221
  entropy:           576.9393643
  heat_capacity:     291.7815370
  energy:            187.2671901

- temperature:       620.0000000
  free_energy:      -170.4590091
  entropy:           581.6858053
  heat_capacity:     292.0166337
  energy:            190.1861902

- temperature:       630.0000000
  free_energy:      -176.2992973
  entropy:           586.3599751
  heat_capacity:     292.2409940
  energy:            193.1074870

- temperature:       640.0000000
  free_energy:      -182.1859747
  entropy:           590.9639862
  heat_capacity:     292.4552565
  energy:            196.0309764

- temperature:       650.0000000
  free_energy:      -188.1183499
  entropy:           595.4998621
  heat_capacity:     292.6600133
  energy:            198.9565604

- temperature:       660.0000000
  free_energy:      -194.0957513
  entropy:           599.9695427
  heat_capacity:     292.8558141
  energy:            201.8841468

- temperature:       670.0000000
  free_energy:      -200.1175264
  entropy:           604.3748879
  heat_capacity:     293.0431697
  energy:            204.8136486

- temperature:       680.0000000
  free_energy:      -206.1830406
  entropy:           608.7176827
  heat_capacity:     293.2225555
  energy:            207.7449836

- temperature:       690.0000000
  free_energy:      -212.2916772
  entropy:           612.9996403
  heat_capacity:     293.3944139
  energy:            210.6780746

- temperature:       700.0000000
  free_energy:      -218.4428361
  entropy:           617.2224062
  heat_capacity:     293.5591573
  energy:            213.6128482

- temperature:       710.0000000
  free_energy:      -224.6359333
  entropy:           621.3875614
  heat_capacity:     293.7171706
  energy:            216.5492353

- temperature:       720.0000000
  free_energy:      -230.8704004
  entropy:           625.4966261
  heat_capacity:     293.8688130
  energy:            219.4871704

- temperature:       730.0000000
  free_energy:      -237.1456838
  entropy:           629.5510619
  heat_capacity:     294.0144202
  energy:            222.4265915

- temperature:       740.0000000
  free_energy:      -243.4612442
  entropy:           633.5522756
  heat_capacity:     294.1543065
  energy:            225.3674397

- temperature:       750.0000000
  free_energy:      -249.8165564
  entropy:           637.5016212
  heat_capacity:     294.2887657
  energy:            228.3096595

- temperature:       760.0000000
  free_energy:      -256.2111081
  entropy:           641.4004026
  heat_capacity:     294.4180735
  energy:            231.2531979

- temperature:       770.0000000
  free_energy:      -262.6444001
  entropy:           645.2498763
  heat_capacity:     294.5424881
  energy:            234.1980047

- temperature:       780.0000000
  free_energy:      -269.1159453
  entropy:           649.0512531
  heat_capacity:     294.6622520
  energy:            237.1440321

- temperature:       790.0000000
  free_energy:      -275.6252687
  entropy:           652.8057008
  heat_capacity:     294.7775930
  energy:            240.0912350

- temperature:       800.0000000
  free_energy:      -282.1719067
  entropy:           656.5143458
  heat_capacity:     294.8887249
  energy:            243.0395700

- temperature:       810.0000000
  free_energy:      -288.7554066
  entropy:           660.1782749
  heat_capacity:     294.9958492
  energy:            245.9889961

- temperature:       820.0000000
  free_energy:      -295.3753266
  entropy:           663.7985376
  heat_capacity:     295.0991551
  energy:            248.9394742

- temperature:       830.0000000
  free_energy:      -302.0312352
  entropy:           667.3761473
  heat_capacity:     295.1988213
  energy:            251.8909671

- temperature:       840.0000000
  free_energy:      -308.7227106
  entropy:           670.9120830
  heat_capacity:     295.2950158
  energy:            254.8434391

- temperature:       850.0000000
  free_energy:      -315.4493411
  entropy:           674.4072911
  heat_capacity:     295.3878974
  energy:            257.7968563

- temperature:       860.0000000
  free_energy:      -322.2107238
  entropy:           677.8626863
  heat_capacity:     295.4776156
  energy:            260.7511865

- temperature:       870.0000000
  free_energy:      -329.0064650
  entropy:           681.2791536
  heat_capacity:     295.5643120
  energy:            263.7063986

- temperature:       880.0000000
  free_energy:      -335.8361799
  entropy:           684.6575489
  heat_capacity:     295.6481202
  energy:            266.6624631

- temperature:       890.0000000
  free_energy:      -342.6994919
  entropy:           687.9987007
  heat_capacity:     295.7291664
  energy:            269.6193518

- temperature:       900.0000000
  free_energy:      -349.5960325
  entropy:           691.3034112
  heat_capacity:     295.8075703
  energy:            272.5770376

- temperature:       910.0000000
  free_energy:      -356.5254412
  entropy:           694.5724571
  heat_capacity:     295.8834449
  energy:            275.5354948

- temperature:       920.0000000
  free_energy:      -363.4873652
  entropy:           697.8065910
  heat_capacity:     295.9568976
  energy:            278.4946984

- temperature:       930.0000000
  free_energy:      -370.4814591
  entropy:           701.0065420
  heat_capacity:     296.0280298
  energy:            281.4546250

- temperature:       940.0000000
  free_energy:      -377.5073845
  entropy:           704.1730171
  heat_capacity:     296.0969380
  energy:            284.4152516

- temperature:       950.0000000
  free_energy:      -384.5648101
  entropy:           707.3067018
  heat_capacity:     296.1637135
  energy:            287.3765566

- temperature:       960.0000000
  free_energy:      -391.6534114
  entropy:           710.4082610
  heat_capacity:     296.2284432
  energy:            290.3385191

- temperature:       970.0000000
  free_energy:      -398.7728704
  entropy:           713.4783395
  heat_capacity:     296.2912094
  energy:            293.3011189

- temperature:       980.0000000
  free_energy:      -405.9228754
  entropy:           716.5175636
  heat_capacity:     296.3520906
  energy:            296.2643370

- temperature:       990.0000000
  free_energy:      -413.1031209
  entropy:           719.5265410
  heat_capacity:     296.4111612
  energy:            299.2281547

- temperature:      1000.0000000
  free_energy:      -420.3133074
  entropy:           722.5058618
  heat_capacity:     296.4684920
  energy:            302.1925544
