# Thermal properties / unit cell (natom)

unit:
  temperature:   K
  free_energy:   kJ/mol
  entropy:       J/K/mol
  heat_capacity: J/K/mol

natom: 7    
cutoff_frequency: 0.00000
num_modes: 328125
num_integrated_modes: 328124

zero_point_energy:      27.7788424

thermal_properties:
- temperature:         0.0000000
  free_energy:        27.7788424
  entropy:             0.0000000
  heat_capacity:       0.0000000
  energy:             27.7788424

- temperature:        10.0000000
  free_energy:        27.7776420
  entropy:             0.4444635
  heat_capacity:       1.3538500
  energy:             27.7820867

- temperature:        20.0000000
  free_energy:        27.7606693
  entropy:             3.5373528
  heat_capacity:       9.5647474
  energy:             27.8314164

- temperature:        30.0000000
  free_energy:        27.6973571
  entropy:             9.4533303
  heat_capacity:      20.3068136
  energy:             27.9809570

- temperature:        40.0000000
  free_energy:        27.5673105
  entropy:            16.6907765
  heat_capacity:      30.3592514
  energy:             28.2349416

- temperature:        50.0000000
  free_energy:        27.3617073
  entropy:            24.4937543
  heat_capacity:      39.8870385
  energy:             28.5863950

- temperature:        60.0000000
  free_energy:        27.0764443
  entropy:            32.5988408
  heat_capacity:      49.3107587
  energy:             29.0323748

- temperature:        70.0000000
  free_energy:        26.7090501
  entropy:            40.9089807
  heat_capacity:      58.7471051
  energy:             29.5726788

- temperature:        80.0000000
  free_energy:        26.2577782
  entropy:            49.3650023
  heat_capacity:      68.0794104
  energy:             30.2069784

- temperature:        90.0000000
  free_energy:        25.7214570
  entropy:            57.9088488
  heat_capacity:      77.1085237
  energy:             30.9332534

- temperature:       100.0000000
  free_energy:        25.0995098
  entropy:            66.4802020
  heat_capacity:      85.6541104
  energy:             31.7475300

- temperature:       110.0000000
  free_energy:        24.3919542
  entropy:            75.0214399
  heat_capacity:      93.5948972
  energy:             32.6443126

- temperature:       120.0000000
  free_energy:        23.5993505
  entropy:            83.4821448
  heat_capacity:     100.8713042
  energy:             33.6172079

- temperature:       130.0000000
  free_energy:        22.7227176
  entropy:            91.8212841
  heat_capacity:     107.4725636
  energy:             34.6594845

- temperature:       140.0000000
  free_energy:        21.7634357
  entropy:           100.0074643
  heat_capacity:     113.4209130
  energy:             35.7644807

- temperature:       150.0000000
  free_energy:        20.7231544
  entropy:           108.0180678
  heat_capacity:     118.7581013
  energy:             36.9258645

- temperature:       160.0000000
  free_energy:        19.6037109
  entropy:           115.8379104
  heat_capacity:     123.5355234
  energy:             38.1377765

- temperature:       170.0000000
  free_energy:        18.4070632
  entropy:           123.4578102
  heat_capacity:     127.8076711
  energy:             39.3948909

- temperature:       180.0000000
  free_energy:        17.1352365
  entropy:           130.8732673
  heat_capacity:     131.6281183
  energy:             40.6924247

- temperature:       190.0000000
  free_energy:        15.7902827
  entropy:           138.0833334
  heat_capacity:     135.0472694
  energy:             42.0261161

- temperature:       200.0000000
  free_energy:        14.3742491
  entropy:           145.0896879
  heat_capacity:     138.1112594
  energy:             43.3921867

- temperature:       210.0000000
  free_energy:        12.8891563
  entropy:           151.8959045
  heat_capacity:     140.8615691
  energy:             44.7872962

- temperature:       220.0000000
  free_energy:        11.3369819
  entropy:           158.5068814
  heat_capacity:     143.3350594
  energy:             46.2084958

- temperature:       230.0000000
  free_energy:         9.7196502
  entropy:           164.9284054
  heat_capacity:     145.5642365
  energy:             47.6531834

- temperature:       240.0000000
  free_energy:         8.0390242
  entropy:           171.1668227
  heat_capacity:     147.5776268
  energy:             49.1190617

- temperature:       250.0000000
  free_energy:         6.2969019
  entropy:           177.2287933
  heat_capacity:     149.4001916
  energy:             50.6041002

- temperature:       260.0000000
  free_energy:         4.4950139
  entropy:           183.1211098
  heat_capacity:     151.0537401
  energy:             52.1065024

- temperature:       270.0000000
  free_energy:         2.6350226
  entropy:           188.8505661
  heat_capacity:     152.5573186
  energy:             53.6246754

- temperature:       280.0000000
  free_energy:         0.7185231
  entropy:           194.4238626
  heat_capacity:     153.9275648
  energy:             55.1572046

- temperature:       290.0000000
  free_energy:        -1.2529560
  entropy:           199.8475411
  heat_capacity:     155.1790245
  energy:             56.7028310

- temperature:       300.0000000
  free_energy:        -3.2779502
  entropy:           205.1279398
  heat_capacity:     156.3244302
  energy:             58.2604317

- temperature:       310.0000000
  free_energy:        -5.3550576
  entropy:           210.2711644
  heat_capacity:     157.3749441
  energy:             59.8290034

- temperature:       320.0000000
  free_energy:        -7.4829358
  entropy:           215.2830716
  heat_capacity:     158.3403683
  energy:             61.4076471

- temperature:       330.0000000
  free_energy:        -9.6602999
  entropy:           220.1692604
  heat_capacity:     159.2293272
  energy:             62.9955560

- temperature:       340.0000000
  free_energy:       -11.8859198
  entropy:           224.9350705
  heat_capacity:     160.0494233
  energy:             64.5920042

- temperature:       350.0000000
  free_energy:       -14.1586171
  entropy:           229.5855842
  heat_capacity:     160.8073725
  energy:             66.1963374

- temperature:       360.0000000
  free_energy:       -16.4772633
  entropy:           234.1256324
  heat_capacity:     161.5091196
  energy:             67.8079644

- temperature:       370.0000000
  free_energy:       -18.8407768
  entropy:           238.5598024
  heat_capacity:     162.1599377
  energy:             69.4263501

- temperature:       380.0000000
  free_energy:       -21.2481209
  entropy:           242.8924473
  heat_capacity:     162.7645141
  energy:             71.0510091

- temperature:       390.0000000
  free_energy:       -23.6983011
  entropy:           247.1276957
  heat_capacity:     163.3270237
  energy:             72.6815002

- temperature:       400.0000000
  free_energy:       -26.1903632
  entropy:           251.2694626
  heat_capacity:     163.8511931
  energy:             74.3174218

- temperature:       410.0000000
  free_energy:       -28.7233912
  entropy:           255.3214599
  heat_capacity:     164.3403550
  energy:             75.9584074

- temperature:       420.0000000
  free_energy:       -31.2965050
  entropy:           259.2872075
  heat_capacity:     164.7974961
  energy:             77.6041222

- temperature:       430.0000000
  free_energy:       -33.9088590
  entropy:           263.1700431
  heat_capacity:     165.2252981
  energy:             79.2542596

- temperature:       440.0000000
  free_energy:       -36.5596400
  entropy:           266.9731328
  heat_capacity:     165.6261732
  energy:             80.9085384

- temperature:       450.0000000
  free_energy:       -39.2480658
  entropy:           270.6994808
  heat_capacity:     166.0022959
  energy:             82.5667005

- temperature:       460.0000000
  free_energy:       -41.9733834
  entropy:           274.3519386
  heat_capacity:     166.3556291
  energy:             84.2285084

- temperature:       470.0000000
  free_energy:       -44.7348673
  entropy:           277.9332137
  heat_capacity:     166.6879485
  energy:             85.8937431

- temperature:       480.0000000
  free_energy:       -47.5318189
  entropy:           281.4458784
  heat_capacity:     167.0008631
  energy:             87.5622027

- temperature:       490.0000000
  free_energy:       -50.3635644
  entropy:           284.8923774
  heat_capacity:     167.2958331
  energy:             89.2337006

- temperature:       500.0000000
  free_energy:       -53.2294537
  entropy:           288.2750353
  heat_capacity:     167.5741858
  energy:             90.9080640

- temperature:       510.0000000
  free_energy:       -56.1288597
  entropy:           291.5960639
  heat_capacity:     167.8371301
  energy:             92.5851329

- temperature:       520.0000000
  free_energy:       -59.0611766
  entropy:           294.8575682
  heat_capacity:     168.0857682
  energy:             94.2647589

- temperature:       530.0000000
  free_energy:       -62.0258193
  entropy:           298.0615533
  heat_capacity:     168.3211067
  energy:             95.9468040

- temperature:       540.0000000
  free_energy:       -65.0222223
  entropy:           301.2099298
  heat_capacity:     168.5440665
  energy:             97.6311398

- temperature:       550.0000000
  free_energy:       -68.0498386
  entropy:           304.3045190
  heat_capacity:     168.7554911
  energy:             99.3176469

- temperature:       560.0000000
  free_energy:       -71.1081392
  entropy:           307.3470588
  heat_capacity:     168.9561541
  energy:            101.0062137

- temperature:       570.0000000
  free_energy:       -74.1966118
  entropy:           310.3392075
  heat_capacity:     169.1467660
  energy:            102.6967364

- temperature:       580.0000000
  free_energy:       -77.3147606
  entropy:           313.2825489
  heat_capacity:     169.3279804
  energy:            104.3891177

- temperature:       590.0000000
  free_energy:       -80.4621052
  entropy:           316.1785964
  heat_capacity:     169.5003990
  energy:            106.0832667

- temperature:       600.0000000
  free_energy:       -83.6381798
  entropy:           319.0287967
  heat_capacity:     169.6645766
  energy:            107.7790983

- temperature:       610.0000000
  free_energy:       -86.8425329
  entropy:           321.8345334
  heat_capacity:     169.8210255
  energy:            109.4765325

- temperature:       620.0000000
  free_energy:       -90.0747266
  entropy:           324.5971310
  heat_capacity:     169.9702191
  energy:            111.1754946

- temperature:       630.0000000
  free_energy:       -93.3343360
  entropy:           327.3178573
  heat_capacity:     170.1125953
  energy:            112.8759142

- temperature:       640.0000000
  free_energy:       -96.6209483
  entropy:           329.9979272
  heat_capacity:     170.2485599
  energy:            114.5777251

- temperature:       650.0000000
  free_energy:       -99.9341629
  entropy:           332.6385048
  heat_capacity:     170.3784891
  energy:            116.2808652

- temperature:       660.0000000
  free_energy:      -103.2735904
  entropy:           335.2407067
  heat_capacity:     170.5027322
  energy:            117.9852760

- temperature:       670.0000000
  free_energy:      -106.6388527
  entropy:           337.8056040
  heat_capacity:     170.6216137
  energy:            119.6909020

- temperature:       680.0000000
  free_energy:      -110.0295816
  entropy:           340.3342250
  heat_capacity:     170.7354355
  energy:            121.3976914

- temperature:       690.0000000
  free_energy:      -113.4454195
  entropy:           342.8275570
  heat_capacity:     170.8444788
  energy:            123.1055948

- temperature:       700.0000000
  free_energy:      -116.8860183
  entropy:           345.2865488
  heat_capacity:     170.9490054
  energy:            124.8145659

- temperature:       710.0000000
  free_energy:      -120.3510391
  entropy:           347.7121123
  heat_capacity:     171.0492598
  energy:            126.5245607

- temperature:       720.0000000
  free_energy:      -123.8401520
  entropy:           350.1051245
  heat_capacity:     171.1454703
  energy:            128.2355376

- temperature:       730.0000000
  free_energy:      -127.3530359
  entropy:           352.4664290
  heat_capacity:     171.2378500
  energy:            129.9474573

- temperature:       740.0000000
  free_energy:      -130.8893776
  entropy:           354.7968380
  heat_capacity:     171.3265984
  energy:            131.6602825

- temperature:       750.0000000
  free_energy:      -134.4488723
  entropy:           357.0971334
  heat_capacity:     171.4119023
  energy:            133.3739778

- temperature:       760.0000000
  free_energy:      -138.0312224
  entropy:           359.3680685
  heat_capacity:     171.4939366
  energy:            135.0885096

- temperature:       770.0000000
  free_energy:      -141.6361382
  entropy:           361.6103693
  heat_capacity:     171.5728653
  energy:            136.8038462

- temperature:       780.0000000
  free_energy:      -145.2633367
  entropy:           363.8247357
  heat_capacity:     171.6488425
  energy:            138.5199571

- temperature:       790.0000000
  free_energy:      -148.9125420
  entropy:           366.0118427
  heat_capacity:     171.7220126
  energy:            140.2368137

- temperature:       800.0000000
  free_energy:      -152.5834849
  entropy:           368.1723417
  heat_capacity:     171.7925117
  energy:            141.9543885

- temperature:       810.0000000
  free_energy:      -156.2759023
  entropy:           370.3068614
  heat_capacity:     171.8604673
  energy:            143.6726554

- temperature:       820.0000000
  free_energy:      -159.9895375
  entropy:           372.4160089
  heat_capacity:     171.9260000
  energy:            145.3915897

- temperature:       830.0000000
  free_energy:      -163.7241398
  entropy:           374.5003706
  heat_capacity:     171.9892229
  energy:            147.1111677

- temperature:       840.0000000
  free_energy:      -167.4794642
  entropy:           376.5605132
  heat_capacity:     172.0502427
  energy:            148.8313669

- temperature:       850.0000000
  free_energy:      -171.2552712
  entropy:           378.5969845
  heat_capacity:     172.1091604
  energy:            150.5521656

- temperature:       860.0000000
  free_energy:      -175.0513268
  entropy:           380.6103141
  heat_capacity:     172.1660708
  energy:            152.2735434

- temperature:       870.0000000
  free_energy:      -178.8674021
  entropy:           382.6010146
  heat_capacity:     172.2210637
  energy:            153.9954806

- temperature:       880.0000000
  free_energy:      -182.7032733
  entropy:           384.5695816
  heat_capacity:     172.2742239
  energy:            155.7179585

- temperature:       890.0000000
  free_energy:      -186.5587215
  entropy:           386.5164952
  heat_capacity:     172.3256317
  energy:            157.4409592

- temperature:       900.0000000
  free_energy:      -190.4335326
  entropy:           388.4422202
  heat_capacity:     172.3753629
  energy:            159.1644656

- temperature:       910.0000000
  free_energy:      -194.3274968
  entropy:           390.3472065
  heat_capacity:     172.4234894
  energy:            160.8884612

- temperature:       920.0000000
  free_energy:      -198.2404090
  entropy:           392.2318905
  heat_capacity:     172.4700792
  energy:            162.6129302

- temperature:       930.0000000
  free_energy:      -202.1720683
  entropy:           394.0966948
  heat_capacity:     172.5151967
  energy:            164.3378578

- temperature:       940.0000000
  free_energy:      -206.1222780
  entropy:           395.9420292
  heat_capacity:     172.5589032
  energy:            166.0632295

- temperature:       950.0000000
  free_energy:      -210.0908453
  entropy:           397.7682913
  heat_capacity:     172.6012566
  energy:            167.7890314

- temperature:       960.0000000
  free_energy:      -214.0775815
  entropy:           399.5758665
  heat_capacity:     172.6423120
  energy:            169.5152503

- temperature:       970.0000000
  free_energy:      -218.0823016
  entropy:           401.3651290
  heat_capacity:     172.6821218
  energy:            171.2418735

- temperature:       980.0000000
  free_energy:      -222.1048243
  entropy:           403.1364419
  heat_capacity:     172.7207357
  energy:            172.9688887

- temperature:       990.0000000
  free_energy:      -226.1449718
  entropy:           404.8901577
  heat_capacity:     172.7582009
  energy:            174.6962844

- temperature:      1000.0000000
  free_energy:      -230.2025699
  entropy:           406.6266190
  heat_capacity:     172.7945623
  energy:            176.4240491
