# Thermal properties / unit cell (natom)

unit:
  temperature:   K
  free_energy:   kJ/mol
  entropy:       J/K/mol
  heat_capacity: J/K/mol

natom: 4    
cutoff_frequency: 0.00000
num_modes: 267696
num_integrated_modes: 267195

zero_point_energy:      11.3512842

thermal_properties:
- temperature:         0.0000000
  free_energy:        11.3512842
  entropy:             0.0000000
  heat_capacity:       0.0000000
  energy:             11.3512842

- temperature:        10.0000000
  free_energy:        11.3489429
  entropy:             0.8273056
  heat_capacity:       2.2377328
  energy:             11.3572159

- temperature:        20.0000000
  free_energy:        11.3219931
  entropy:             5.2812037
  heat_capacity:      12.8824949
  energy:             11.4276172

- temperature:        30.0000000
  free_energy:        11.2330520
  entropy:            12.7871629
  heat_capacity:      24.4577353
  energy:             11.6166669

- temperature:        40.0000000
  free_energy:        11.0639053
  entropy:            21.0537259
  heat_capacity:      32.9671593
  energy:             11.9060544

- temperature:        50.0000000
  free_energy:        10.8126539
  entropy:            29.1406971
  heat_capacity:      39.5611984
  energy:             12.2696888

- temperature:        60.0000000
  free_energy:        10.4822848
  entropy:            36.8747233
  heat_capacity:      45.3752023
  energy:             12.6947682

- temperature:        70.0000000
  free_energy:        10.0762503
  entropy:            44.2814664
  heat_capacity:      50.8058153
  energy:             13.1759530

- temperature:        80.0000000
  free_energy:         9.5976098
  entropy:            51.4012125
  heat_capacity:      55.8808750
  energy:             13.7097068

- temperature:        90.0000000
  free_energy:         9.0491066
  entropy:            58.2563524
  heat_capacity:      60.5391909
  energy:             14.2921784

- temperature:       100.0000000
  free_energy:         8.4333333
  entropy:            64.8561748
  heat_capacity:      64.7368822
  energy:             14.9189508

- temperature:       110.0000000
  free_energy:         7.7528203
  entropy:            71.2048593
  heat_capacity:      68.4671736
  energy:             15.5853548

- temperature:       120.0000000
  free_energy:         7.0100607
  entropy:            77.3062248
  heat_capacity:      71.7520169
  energy:             16.2868077

- temperature:       130.0000000
  free_energy:         6.2075025
  entropy:            83.1656479
  heat_capacity:      74.6295319
  energy:             17.0190367

- temperature:       140.0000000
  free_energy:         5.3475301
  entropy:            88.7904218
  heat_capacity:      77.1442984
  energy:             17.7781891

- temperature:       150.0000000
  free_energy:         4.4324467
  entropy:            94.1894479
  heat_capacity:      79.3413128
  energy:             18.5608638

- temperature:       160.0000000
  free_energy:         3.4644603
  entropy:            99.3727309
  heat_capacity:      81.2627454
  energy:             19.3640973

- temperature:       170.0000000
  free_energy:         2.4456758
  entropy:           104.3508893
  heat_capacity:      82.9464927
  energy:             20.1853270

- temperature:       180.0000000
  free_energy:         1.3780902
  entropy:           109.1347549
  heat_capacity:      84.4257694
  energy:             21.0223461

- temperature:       190.0000000
  free_energy:         0.2635925
  entropy:           113.7350756
  heat_capacity:      85.7292503
  energy:             21.8732569

- temperature:       200.0000000
  free_energy:        -0.8960344
  entropy:           118.1623085
  heat_capacity:      86.8814707
  energy:             22.7364273

- temperature:       210.0000000
  free_energy:        -2.0991102
  entropy:           122.4264869
  heat_capacity:      87.9033193
  energy:             23.6104520

- temperature:       220.0000000
  free_energy:        -3.3440525
  entropy:           126.5371409
  heat_capacity:      88.8125400
  energy:             24.4941185

- temperature:       230.0000000
  free_energy:        -4.6293713
  entropy:           130.5032573
  heat_capacity:      89.6241970
  energy:             25.3863779

- temperature:       240.0000000
  free_energy:        -5.9536640
  entropy:           134.3332672
  heat_capacity:      90.3510886
  energy:             26.2863201

- temperature:       250.0000000
  free_energy:        -7.3156093
  entropy:           138.0350515
  heat_capacity:      91.0041056
  energy:             27.1931536

- temperature:       260.0000000
  free_energy:        -8.7139621
  entropy:           141.6159587
  heat_capacity:      91.5925346
  energy:             28.1061871

- temperature:       270.0000000
  free_energy:       -10.1475484
  entropy:           145.0828295
  heat_capacity:      92.1243150
  energy:             29.0248156

- temperature:       280.0000000
  free_energy:       -11.6152599
  entropy:           148.4420259
  heat_capacity:      92.6062528
  energy:             29.9485074

- temperature:       290.0000000
  free_energy:       -13.1160498
  entropy:           151.6994615
  heat_capacity:      93.0441997
  energy:             30.8767941

- temperature:       300.0000000
  free_energy:       -14.6489283
  entropy:           154.8606330
  heat_capacity:      93.4432021
  energy:             31.8092616

- temperature:       310.0000000
  free_energy:       -16.2129586
  entropy:           157.9306501
  heat_capacity:      93.8076254
  energy:             32.7455429

- temperature:       320.0000000
  free_energy:       -17.8072533
  entropy:           160.9142651
  heat_capacity:      94.1412570
  energy:             33.6853116

- temperature:       330.0000000
  free_energy:       -19.4309707
  entropy:           163.8159004
  heat_capacity:      94.4473933
  energy:             34.6282765

- temperature:       340.0000000
  free_energy:       -21.0833118
  entropy:           166.6396741
  heat_capacity:      94.7289117
  energy:             35.5741774

- temperature:       350.0000000
  free_energy:       -22.7635174
  entropy:           169.3894243
  heat_capacity:      94.9883310
  energy:             36.5227811

- temperature:       360.0000000
  free_energy:       -24.4708655
  entropy:           172.0687313
  heat_capacity:      95.2278628
  energy:             37.4738778

- temperature:       370.0000000
  free_energy:       -26.2046684
  entropy:           174.6809378
  heat_capacity:      95.4494541
  energy:             38.4272785

- temperature:       380.0000000
  free_energy:       -27.9642710
  entropy:           177.2291679
  heat_capacity:      95.6548236
  energy:             39.3828128

- temperature:       390.0000000
  free_energy:       -29.7490483
  entropy:           179.7163444
  heat_capacity:      95.8454925
  energy:             40.3403260

- temperature:       400.0000000
  free_energy:       -31.5584035
  entropy:           182.1452042
  heat_capacity:      96.0228107
  energy:             41.2996782

- temperature:       410.0000000
  free_energy:       -33.3917666
  entropy:           184.5183130
  heat_capacity:      96.1879790
  energy:             42.2607418

- temperature:       420.0000000
  free_energy:       -35.2485920
  entropy:           186.8380781
  heat_capacity:      96.3420680
  energy:             43.2234008

- temperature:       430.0000000
  free_energy:       -37.1283579
  entropy:           189.1067611
  heat_capacity:      96.4860347
  energy:             44.1875494

- temperature:       440.0000000
  free_energy:       -39.0305641
  entropy:           191.3264879
  heat_capacity:      96.6207360
  energy:             45.1530906

- temperature:       450.0000000
  free_energy:       -40.9547311
  entropy:           193.4992598
  heat_capacity:      96.7469414
  energy:             46.1199358

- temperature:       460.0000000
  free_energy:       -42.9003990
  entropy:           195.6269619
  heat_capacity:      96.8653429
  energy:             47.0880035

- temperature:       470.0000000
  free_energy:       -44.8671261
  entropy:           197.7113719
  heat_capacity:      96.9765642
  energy:             48.0572187

- temperature:       480.0000000
  free_energy:       -46.8544878
  entropy:           199.7541676
  heat_capacity:      97.0811686
  energy:             49.0275127

- temperature:       490.0000000
  free_energy:       -48.8620760
  entropy:           201.7569342
  heat_capacity:      97.1796660
  energy:             49.9988217

- temperature:       500.0000000
  free_energy:       -50.8894980
  entropy:           203.7211704
  heat_capacity:      97.2725182
  energy:             50.9710872

- temperature:       510.0000000
  free_energy:       -52.9363757
  entropy:           205.6482949
  heat_capacity:      97.3601449
  energy:             51.9442547

- temperature:       520.0000000
  free_energy:       -55.0023447
  entropy:           207.5396512
  heat_capacity:      97.4429276
  energy:             52.9182739

- temperature:       530.0000000
  free_energy:       -57.0870538
  entropy:           209.3965132
  heat_capacity:      97.5212140
  energy:             53.8930983

- temperature:       540.0000000
  free_energy:       -59.1901640
  entropy:           211.2200895
  heat_capacity:      97.5953215
  energy:             54.8686843

- temperature:       550.0000000
  free_energy:       -61.3113484
  entropy:           213.0115276
  heat_capacity:      97.6655401
  energy:             55.8449917

- temperature:       560.0000000
  free_energy:       -63.4502911
  entropy:           214.7719181
  heat_capacity:      97.7321352
  energy:             56.8219830

- temperature:       570.0000000
  free_energy:       -65.6066868
  entropy:           216.5022981
  heat_capacity:      97.7953502
  energy:             57.7996232

- temperature:       580.0000000
  free_energy:       -67.7802403
  entropy:           218.2036549
  heat_capacity:      97.8554085
  energy:             58.7778795

- temperature:       590.0000000
  free_energy:       -69.9706662
  entropy:           219.8769284
  heat_capacity:      97.9125156
  energy:             59.7567215

- temperature:       600.0000000
  free_energy:       -72.1776883
  entropy:           221.5230148
  heat_capacity:      97.9668604
  energy:             60.7361206

- temperature:       610.0000000
  free_energy:       -74.4010388
  entropy:           223.1427686
  heat_capacity:      98.0186173
  energy:             61.7160501

- temperature:       620.0000000
  free_energy:       -76.6404586
  entropy:           224.7370056
  heat_capacity:      98.0679469
  energy:             62.6964849

- temperature:       630.0000000
  free_energy:       -78.8956964
  entropy:           226.3065045
  heat_capacity:      98.1149979
  energy:             63.6774014

- temperature:       640.0000000
  free_energy:       -81.1665087
  entropy:           227.8520100
  heat_capacity:      98.1599078
  energy:             64.6587777

- temperature:       650.0000000
  free_energy:       -83.4526590
  entropy:           229.3742337
  heat_capacity:      98.2028038
  energy:             65.6405929

- temperature:       660.0000000
  free_energy:       -85.7539180
  entropy:           230.8738568
  heat_capacity:      98.2438040
  energy:             66.6228275

- temperature:       670.0000000
  free_energy:       -88.0700630
  entropy:           232.3515314
  heat_capacity:      98.2830178
  energy:             67.6054630

- temperature:       680.0000000
  free_energy:       -90.4008776
  entropy:           233.8078820
  heat_capacity:      98.3205471
  energy:             68.5884822

- temperature:       690.0000000
  free_energy:       -92.7461516
  entropy:           235.2435076
  heat_capacity:      98.3564866
  energy:             69.5718687

- temperature:       700.0000000
  free_energy:       -95.1056806
  entropy:           236.6589821
  heat_capacity:      98.3909244
  energy:             70.5556069

- temperature:       710.0000000
  free_energy:       -97.4792659
  entropy:           238.0548567
  heat_capacity:      98.4239426
  energy:             71.5396824

- temperature:       720.0000000
  free_energy:       -99.8667141
  entropy:           239.4316603
  heat_capacity:      98.4556178
  energy:             72.5240813

- temperature:       730.0000000
  free_energy:      -102.2678372
  entropy:           240.7899010
  heat_capacity:      98.4860217
  energy:             73.5087905

- temperature:       740.0000000
  free_energy:      -104.6824519
  entropy:           242.1300671
  heat_capacity:      98.5152211
  energy:             74.4937977

- temperature:       750.0000000
  free_energy:      -107.1103799
  entropy:           243.4526280
  heat_capacity:      98.5432785
  energy:             75.4790911

- temperature:       760.0000000
  free_energy:      -109.5514473
  entropy:           244.7580355
  heat_capacity:      98.5702525
  energy:             76.4646597

- temperature:       770.0000000
  free_energy:      -112.0054848
  entropy:           246.0467242
  heat_capacity:      98.5961979
  energy:             77.4504928

- temperature:       780.0000000
  free_energy:      -114.4723274
  entropy:           247.3191126
  heat_capacity:      98.6211662
  energy:             78.4365804

- temperature:       790.0000000
  free_energy:      -116.9518141
  entropy:           248.5756039
  heat_capacity:      98.6452058
  energy:             79.4229130

- temperature:       800.0000000
  free_energy:      -119.4437878
  entropy:           249.8165867
  heat_capacity:      98.6683618
  energy:             80.4094815

- temperature:       810.0000000
  free_energy:      -121.9480954
  entropy:           251.0424356
  heat_capacity:      98.6906770
  energy:             81.3962774

- temperature:       820.0000000
  free_energy:      -124.4645873
  entropy:           252.2535119
  heat_capacity:      98.7121914
  energy:             82.3832924

- temperature:       830.0000000
  free_energy:      -126.9931176
  entropy:           253.4501642
  heat_capacity:      98.7329427
  energy:             83.3705187

- temperature:       840.0000000
  free_energy:      -129.5335436
  entropy:           254.6327291
  heat_capacity:      98.7529666
  energy:             84.3579488

- temperature:       850.0000000
  free_energy:      -132.0857263
  entropy:           255.8015318
  heat_capacity:      98.7722966
  energy:             85.3455757

- temperature:       860.0000000
  free_energy:      -134.6495294
  entropy:           256.9568861
  heat_capacity:      98.7909641
  energy:             86.3333926

- temperature:       870.0000000
  free_energy:      -137.2248202
  entropy:           258.0990955
  heat_capacity:      98.8089992
  energy:             87.3213929

- temperature:       880.0000000
  free_energy:      -139.8114685
  entropy:           259.2284535
  heat_capacity:      98.8264298
  energy:             88.3095705

- temperature:       890.0000000
  free_energy:      -142.4093473
  entropy:           260.3452437
  heat_capacity:      98.8432828
  energy:             89.2979196

- temperature:       900.0000000
  free_energy:      -145.0183324
  entropy:           261.4497408
  heat_capacity:      98.8595832
  energy:             90.2864344

- temperature:       910.0000000
  free_energy:      -147.6383021
  entropy:           262.5422105
  heat_capacity:      98.8753548
  energy:             91.2751095

- temperature:       920.0000000
  free_energy:      -150.2691374
  entropy:           263.6229099
  heat_capacity:      98.8906204
  energy:             92.2639398

- temperature:       930.0000000
  free_energy:      -152.9107219
  entropy:           264.6920883
  heat_capacity:      98.9054011
  energy:             93.2529203

- temperature:       940.0000000
  free_energy:      -155.5629416
  entropy:           265.7499870
  heat_capacity:      98.9197173
  energy:             94.2420462

- temperature:       950.0000000
  free_energy:      -158.2256848
  entropy:           266.7968399
  heat_capacity:      98.9335883
  energy:             95.2313131

- temperature:       960.0000000
  free_energy:      -160.8988423
  entropy:           267.8328738
  heat_capacity:      98.9470321
  energy:             96.2207166

- temperature:       970.0000000
  free_energy:      -163.5823069
  entropy:           268.8583086
  heat_capacity:      98.9600662
  energy:             97.2102524

- temperature:       980.0000000
  free_energy:      -166.2759738
  entropy:           269.8733576
  heat_capacity:      98.9727070
  energy:             98.1999166

- temperature:       990.0000000
  free_energy:      -168.9797402
  entropy:           270.8782277
  heat_capacity:      98.9849701
  energy:             99.1897053

- temperature:      1000.0000000
  free_energy:      -171.6935051
  entropy:           271.8731199
  heat_capacity:      98.9968704
  energy:            100.1796148
