phonopy:
  version: "2.37.1"
  frequency_unit_conversion_factor: 15.633302
  symmetry_tolerance: 1.00000e-05

space_group:
  type: "Fd-3m"
  number: 227
  Hall_symbol: "F 4d 2 3 -1d"

primitive_matrix:
- [ -1.000000000000000, -0.000000000000001, -0.000000000000001 ]
- [ -0.000000000000000, -1.000000000000000, -0.000000000000000 ]
- [  1.000000000000000,  1.000000000000000,  1.000000000000000 ]

supercell_matrix:
- [   2,   0,   0 ]
- [   0,   2,   0 ]
- [   0,   0,   2 ]

primitive_cell:
  lattice:
  - [    -2.777719171998860,     1.603718363465237,     4.535998306183489 ] # a
  - [     0.000002382810783,    -3.207434952413803,     4.535998306183490 ] # b
  - [     2.777721239253542,     1.603718363465237,     4.535998306183489 ] # c
  points:
  - symbol: Li # 1
    coordinates: [  0.499999999238758,  0.499999999528971,  0.499999995482471 ]
    mass: 6.940000
  - symbol: Li # 2
    coordinates: [  0.999999997787299,  0.500000004607580,  0.999999998644281 ]
    mass: 6.940000
  - symbol: Li # 3
    coordinates: [  0.500000010323393,  0.999999997174672,  0.999999999752894 ]
    mass: 6.940000
  - symbol: Li # 4
    coordinates: [  0.499999998154430,  0.499999988971334,  0.000000012103371 ]
    mass: 6.940000
  - symbol: Sn # 5
    coordinates: [  0.874999993941354,  0.875000001910071,  0.374999999770108 ]
    mass: 118.710000
  - symbol: Sn # 6
    coordinates: [  0.125000001254400,  0.125000007807145,  0.624999994205598 ]
    mass: 118.710000
  reciprocal_lattice: # without 2pi
  - [    -0.180003730752746,     0.103925134851079,     0.073486257350691 ] # a*
  - [     0.000000000000000,    -0.207850370658431,     0.073486239142458 ] # b*
  - [     0.180003730752746,     0.103925235807352,     0.073486139621595 ] # c*

unit_cell:
  lattice:
  - [     5.555440411252403,     0.000000000000000,     0.000000000000000 ] # a
  - [     2.777718856442760,     4.811153315879041,     0.000000000000000 ] # b
  - [     2.777721239253546,     1.603718363465237,     4.535998306183489 ] # c
  points:
  - symbol: Li # 1
    coordinates: [  0.500000000761242,  0.500000000471029,  0.499999994250200 ]
    mass: 6.940000
    reduced_to: 1
  - symbol: Li # 2
    coordinates: [  0.000000002212701,  0.499999995392420,  0.500000001039159 ]
    mass: 6.940000
    reduced_to: 2
  - symbol: Li # 3
    coordinates: [  0.499999989676606,  0.000000002825328,  0.500000007250959 ]
    mass: 6.940000
    reduced_to: 3
  - symbol: Li # 4
    coordinates: [  0.500000001845569,  0.500000011028666,  0.999999999229135 ]
    mass: 6.940000
    reduced_to: 4
  - symbol: Sn # 5
    coordinates: [  0.125000006058646,  0.124999998089929,  0.124999995621533 ]
    mass: 118.710000
    reduced_to: 5
  - symbol: Sn # 6
    coordinates: [  0.874999998745600,  0.874999992192855,  0.875000003267143 ]
    mass: 118.710000
    reduced_to: 6

supercell:
  lattice:
  - [    11.110880822504805,     0.000000000000000,     0.000000000000000 ] # a
  - [     5.555437712885520,     9.622306631758082,     0.000000000000000 ] # b
  - [     5.555442478507091,     3.207436726930474,     9.071996612366979 ] # c
  points:
  - symbol: Li # 1
    coordinates: [  0.250000000380621,  0.250000000235514,  0.249999997125100 ]
    mass: 6.940000
    reduced_to: 1
  - symbol: Li # 2
    coordinates: [  0.750000000380621,  0.250000000235514,  0.249999997125100 ]
    mass: 6.940000
    reduced_to: 1
  - symbol: Li # 3
    coordinates: [  0.250000000380621,  0.750000000235514,  0.249999997125100 ]
    mass: 6.940000
    reduced_to: 1
  - symbol: Li # 4
    coordinates: [  0.750000000380621,  0.750000000235514,  0.249999997125100 ]
    mass: 6.940000
    reduced_to: 1
  - symbol: Li # 5
    coordinates: [  0.250000000380621,  0.250000000235514,  0.749999997125100 ]
    mass: 6.940000
    reduced_to: 1
  - symbol: Li # 6
    coordinates: [  0.750000000380621,  0.250000000235514,  0.749999997125100 ]
    mass: 6.940000
    reduced_to: 1
  - symbol: Li # 7
    coordinates: [  0.250000000380621,  0.750000000235514,  0.749999997125100 ]
    mass: 6.940000
    reduced_to: 1
  - symbol: Li # 8
    coordinates: [  0.750000000380621,  0.750000000235514,  0.749999997125100 ]
    mass: 6.940000
    reduced_to: 1
  - symbol: Li # 9
    coordinates: [  0.000000001106350,  0.249999997696210,  0.250000000519580 ]
    mass: 6.940000
    reduced_to: 9
  - symbol: Li # 10
    coordinates: [  0.500000001106350,  0.249999997696210,  0.250000000519580 ]
    mass: 6.940000
    reduced_to: 9
  - symbol: Li # 11
    coordinates: [  0.000000001106350,  0.749999997696210,  0.250000000519580 ]
    mass: 6.940000
    reduced_to: 9
  - symbol: Li # 12
    coordinates: [  0.500000001106350,  0.749999997696210,  0.250000000519580 ]
    mass: 6.940000
    reduced_to: 9
  - symbol: Li # 13
    coordinates: [  0.000000001106350,  0.249999997696210,  0.750000000519580 ]
    mass: 6.940000
    reduced_to: 9
  - symbol: Li # 14
    coordinates: [  0.500000001106350,  0.249999997696210,  0.750000000519580 ]
    mass: 6.940000
    reduced_to: 9
  - symbol: Li # 15
    coordinates: [  0.000000001106350,  0.749999997696210,  0.750000000519580 ]
    mass: 6.940000
    reduced_to: 9
  - symbol: Li # 16
    coordinates: [  0.500000001106350,  0.749999997696210,  0.750000000519580 ]
    mass: 6.940000
    reduced_to: 9
  - symbol: Li # 17
    coordinates: [  0.249999994838303,  0.000000001412664,  0.250000003625480 ]
    mass: 6.940000
    reduced_to: 17
  - symbol: Li # 18
    coordinates: [  0.749999994838303,  0.000000001412664,  0.250000003625480 ]
    mass: 6.940000
    reduced_to: 17
  - symbol: Li # 19
    coordinates: [  0.249999994838303,  0.500000001412664,  0.250000003625480 ]
    mass: 6.940000
    reduced_to: 17
  - symbol: Li # 20
    coordinates: [  0.749999994838303,  0.500000001412664,  0.250000003625480 ]
    mass: 6.940000
    reduced_to: 17
  - symbol: Li # 21
    coordinates: [  0.249999994838303,  0.000000001412664,  0.750000003625480 ]
    mass: 6.940000
    reduced_to: 17
  - symbol: Li # 22
    coordinates: [  0.749999994838303,  0.000000001412664,  0.750000003625480 ]
    mass: 6.940000
    reduced_to: 17
  - symbol: Li # 23
    coordinates: [  0.249999994838303,  0.500000001412664,  0.750000003625480 ]
    mass: 6.940000
    reduced_to: 17
  - symbol: Li # 24
    coordinates: [  0.749999994838303,  0.500000001412664,  0.750000003625480 ]
    mass: 6.940000
    reduced_to: 17
  - symbol: Li # 25
    coordinates: [  0.250000000922785,  0.250000005514333,  0.499999999614568 ]
    mass: 6.940000
    reduced_to: 25
  - symbol: Li # 26
    coordinates: [  0.750000000922785,  0.250000005514333,  0.499999999614568 ]
    mass: 6.940000
    reduced_to: 25
  - symbol: Li # 27
    coordinates: [  0.250000000922785,  0.750000005514333,  0.499999999614568 ]
    mass: 6.940000
    reduced_to: 25
  - symbol: Li # 28
    coordinates: [  0.750000000922785,  0.750000005514333,  0.499999999614568 ]
    mass: 6.940000
    reduced_to: 25
  - symbol: Li # 29
    coordinates: [  0.250000000922785,  0.250000005514333,  0.999999999614568 ]
    mass: 6.940000
    reduced_to: 25
  - symbol: Li # 30
    coordinates: [  0.750000000922785,  0.250000005514333,  0.999999999614568 ]
    mass: 6.940000
    reduced_to: 25
  - symbol: Li # 31
    coordinates: [  0.250000000922785,  0.750000005514333,  0.999999999614568 ]
    mass: 6.940000
    reduced_to: 25
  - symbol: Li # 32
    coordinates: [  0.750000000922785,  0.750000005514333,  0.999999999614568 ]
    mass: 6.940000
    reduced_to: 25
  - symbol: Sn # 33
    coordinates: [  0.062500003029323,  0.062499999044964,  0.062499997810767 ]
    mass: 118.710000
    reduced_to: 33
  - symbol: Sn # 34
    coordinates: [  0.562500003029323,  0.062499999044964,  0.062499997810767 ]
    mass: 118.710000
    reduced_to: 33
  - symbol: Sn # 35
    coordinates: [  0.062500003029323,  0.562499999044964,  0.062499997810767 ]
    mass: 118.710000
    reduced_to: 33
  - symbol: Sn # 36
    coordinates: [  0.562500003029323,  0.562499999044964,  0.062499997810767 ]
    mass: 118.710000
    reduced_to: 33
  - symbol: Sn # 37
    coordinates: [  0.062500003029323,  0.062499999044964,  0.562499997810767 ]
    mass: 118.710000
    reduced_to: 33
  - symbol: Sn # 38
    coordinates: [  0.562500003029323,  0.062499999044964,  0.562499997810767 ]
    mass: 118.710000
    reduced_to: 33
  - symbol: Sn # 39
    coordinates: [  0.062500003029323,  0.562499999044964,  0.562499997810767 ]
    mass: 118.710000
    reduced_to: 33
  - symbol: Sn # 40
    coordinates: [  0.562500003029323,  0.562499999044964,  0.562499997810767 ]
    mass: 118.710000
    reduced_to: 33
  - symbol: Sn # 41
    coordinates: [  0.437499999372800,  0.437499996096427,  0.437500001633572 ]
    mass: 118.710000
    reduced_to: 41
  - symbol: Sn # 42
    coordinates: [  0.937499999372800,  0.437499996096427,  0.437500001633572 ]
    mass: 118.710000
    reduced_to: 41
  - symbol: Sn # 43
    coordinates: [  0.437499999372800,  0.937499996096427,  0.437500001633572 ]
    mass: 118.710000
    reduced_to: 41
  - symbol: Sn # 44
    coordinates: [  0.937499999372800,  0.937499996096427,  0.437500001633572 ]
    mass: 118.710000
    reduced_to: 41
  - symbol: Sn # 45
    coordinates: [  0.437499999372800,  0.437499996096427,  0.937500001633572 ]
    mass: 118.710000
    reduced_to: 41
  - symbol: Sn # 46
    coordinates: [  0.937499999372800,  0.437499996096427,  0.937500001633572 ]
    mass: 118.710000
    reduced_to: 41
  - symbol: Sn # 47
    coordinates: [  0.437499999372800,  0.937499996096427,  0.937500001633572 ]
    mass: 118.710000
    reduced_to: 41
  - symbol: Sn # 48
    coordinates: [  0.937499999372800,  0.937499996096427,  0.937500001633572 ]
    mass: 118.710000
    reduced_to: 41

displacements:
- atom:    1
  displacement:
    [   0.0100000000000000,  0.0000000000000000,  0.0000000000000000 ]
  forces:
  - [  -0.0267718359827995, -0.0137797696515918, -0.0097432229667902 ]
  - [   0.0020042974501848,  0.0002228694502264,  0.0001585558056831 ]
  - [   0.0006001070141792,  0.0010341086890548,  0.0000437119742855 ]
  - [   0.0001120856031775, -0.0003207549452782, -0.0000113323330879 ]
  - [   0.0006017084233463,  0.0003873954992741,  0.0009589785477147 ]
  - [   0.0001115105114877, -0.0001184055581689, -0.0002985807368532 ]
  - [   0.0003493875265121, -0.0002529476769269, -0.0001801653997973 ]
  - [  -0.0000213893818000,  0.0000608655391261,  0.0000426971819252 ]
  - [   0.0085889659821987,  0.0004314335528761,  0.0003060756716877 ]
  - [   0.0087570091709495,  0.0004208914469928,  0.0002977179829031 ]
  - [  -0.0002184524200857, -0.0002047750167549,  0.0000119425822049 ]
  - [  -0.0002156896516681, -0.0002073347568512,  0.0000104121863842 ]
  - [  -0.0002172933891416, -0.0000566476956010, -0.0001953039318323 ]
  - [  -0.0002157748676836, -0.0000567666720599, -0.0001979892840609 ]
  - [  -0.0003108389209956, -0.0002716779708862, -0.0001921486109495 ]
  - [  -0.0003074833657593, -0.0002712071873248, -0.0001922524534166 ]
  - [   0.0017123192083091,  0.0035836382303387,  0.0005395100452006 ]
  - [  -0.0004723279562313,  0.0003575497830752,  0.0000729569001123 ]
  - [   0.0016972933663055,  0.0036073427181691,  0.0005411198362708 ]
  - [  -0.0004501797957346,  0.0003354543587193,  0.0000715106725693 ]
  - [  -0.0001234065712197,  0.0000037103309296, -0.0001707063056529 ]
  - [  -0.0002404716506135,  0.0002319368068129,  0.0005711235571653 ]
  - [  -0.0001231537025888,  0.0000027769710869, -0.0001688498305157 ]
  - [  -0.0002368630375713,  0.0002306167152710,  0.0005643983604386 ]
  - [   0.0016987865092233,  0.0017125429585576,  0.0032192622311413 ]
  - [  -0.0004479151684791,  0.0001779618905857,  0.0002916116500273 ]
  - [  -0.0001221019192599, -0.0001568968873471,  0.0000594159355387 ]
  - [  -0.0002364669635426,  0.0006079522427171,  0.0000298452796414 ]
  - [   0.0017137702088803,  0.0017031256575137,  0.0031993687152863 ]
  - [  -0.0004711075453088,  0.0001876642927527,  0.0003129718825221 ]
  - [  -0.0001242489379365, -0.0001596431829967,  0.0000609501730651 ]
  - [  -0.0002412220346741,  0.0006161691853777,  0.0000290254829451 ]
  - [  -0.0005341516807675, -0.0003666893462650, -0.0002591237425804 ]
  - [   0.0006390712223947, -0.0010721016442403, -0.0007577724754810 ]
  - [   0.0009773730998859,  0.0007821752224118,  0.0006595384329557 ]
  - [  -0.0001480316568632, -0.0000831480138004,  0.0002706516534090 ]
  - [   0.0009773804340512,  0.0008821839583106,  0.0005164062604308 ]
  - [  -0.0001481954823248,  0.0002262860070914, -0.0001685600727797 ]
  - [   0.0001160452229669, -0.0002309482515557, -0.0001624412834644 ]
  - [  -0.0000701926182956, -0.0001792239781935, -0.0001262985169888 ]
  - [  -0.0005415864288807, -0.0003691408783197, -0.0002619344741106 ]
  - [   0.0006255283951759, -0.0010398682206869, -0.0007359227165580 ]
  - [   0.0009842354338616,  0.0007619550451636,  0.0006836685352027 ]
  - [  -0.0001430838747183, -0.0000831149518490,  0.0002684402279556 ]
  - [   0.0009866149630398,  0.0008976608514786,  0.0004899022169411 ]
  - [  -0.0001443123474019,  0.0002240852336399, -0.0001700529828668 ]
  - [   0.0001161840555142, -0.0002295677259099, -0.0001620333641768 ]
  - [  -0.0000718347728252, -0.0001796568685677, -0.0001272195950150 ]
- atom:   33
  displacement:
    [   0.0100000000000000,  0.0000000000000000,  0.0000000000000000 ]
  forces:
  - [  -0.0005436846986413, -0.0003742482513189, -0.0002641496248543 ]
  - [   0.0006211634026840,  0.0009759142994881,  0.0006910033989698 ]
  - [   0.0009769978933036, -0.0012598334578797,  0.0013928363332525 ]
  - [  -0.0001435633748770, -0.0000814427621663, -0.0000528292730451 ]
  - [   0.0009783785790205,  0.0008946747984737, -0.0016527838306502 ]
  - [  -0.0001442926004529, -0.0000777018722147, -0.0000593524891883 ]
  - [   0.0001152078621089,  0.0000768296886235,  0.0000529916724190 ]
  - [  -0.0000745269207982, -0.0001700290013105, -0.0001204209402204 ]
  - [   0.0006437527481467, -0.0009713111212477, -0.0006858580745757 ]
  - [  -0.0005320529453456,  0.0003612805157900,  0.0002555015962571 ]
  - [   0.0009827907197177,  0.0012547126971185, -0.0013854491990060 ]
  - [  -0.0001483671367168,  0.0000858241692185,  0.0000502346083522 ]
  - [   0.0009837285615504, -0.0008878638036549,  0.0016455571167171 ]
  - [  -0.0001484621316195,  0.0000783975701779,  0.0000651181908324 ]
  - [  -0.0000694214832038,  0.0001861320342869,  0.0001318691065535 ]
  - [   0.0001190057955682, -0.0000731879845262, -0.0000518517335877 ]
  - [   0.0010964397806674,  0.0008201628807001,  0.0007332842797041 ]
  - [   0.0010083462111652, -0.0008065581787378, -0.0006695695919916 ]
  - [   0.0000992540662992,  0.0000009302748367,  0.0000004516914487 ]
  - [  -0.0000022442836780,  0.0000012096716091,  0.0000000922009349 ]
  - [  -0.0005614833789878,  0.0000188123667613,  0.0000391115900129 ]
  - [   0.0002384553081356, -0.0000018480932340,  0.0000139744952321 ]
  - [  -0.0000150095147546, -0.0003070128150284,  0.0001190077746287 ]
  - [  -0.0000120980257634,  0.0003000035067089, -0.0001101974630728 ]
  - [   0.0001005811282084,  0.0000005823094398, -0.0000003266613930 ]
  - [   0.0000002128363121, -0.0000008605420589,  0.0000004851026461 ]
  - [  -0.0000139963522088,  0.0000110950786620, -0.0003286189166829 ]
  - [  -0.0000117205199786, -0.0000051010865718,  0.0003201005747542 ]
  - [   0.0010974201140925,  0.0009639012278058,  0.0005294396542013 ]
  - [   0.0010084097739309, -0.0008998643606901, -0.0005371114239097 ]
  - [  -0.0005619971780106,  0.0000430278014392,  0.0000049744267017 ]
  - [   0.0002377520722803,  0.0000129091786221, -0.0000059810699895 ]
  - [  -0.0099016595631838, -0.0000520575558767, -0.0000364189036191 ]
  - [   0.0004650223709177, -0.0000027932242119, -0.0000016223639250 ]
  - [  -0.0000350844638888,  0.0002912263153121, -0.0001175818033516 ]
  - [  -0.0000361019774573, -0.0002854418708012,  0.0001151426695287 ]
  - [  -0.0000345923472196, -0.0000136305461638,  0.0003122473135591 ]
  - [  -0.0000362728605978,  0.0000125886872411, -0.0003075003623962 ]
  - [  -0.0000120720833365, -0.0000010166788798, -0.0000000372529030 ]
  - [   0.0000943586928770, -0.0000008423932059, -0.0000000447034836 ]
  - [  -0.0000040978193283, -0.0001392997801304, -0.0000994075089693 ]
  - [  -0.0000030165538192,  0.0001380685716867,  0.0000971881672740 ]
  - [   0.0002351770526730,  0.0000002644956112, -0.0000016167759895 ]
  - [  -0.0003487768408377,  0.0000009788200259,  0.0000062771141529 ]
  - [   0.0002377446508035, -0.0000021512848889, -0.0000000931322575 ]
  - [  -0.0003504491469357,  0.0000048151823648, -0.0000033397227526 ]
  - [   0.0013022089842707, -0.0009575965232216, -0.0006770845502615 ]
  - [   0.0011027863947675,  0.0008376543992199,  0.0005921684205532 ]

force_constants:
  format: "full"
  shape: [ 48, 48 ]
  elements:
  - # (1, 1)
    - [     2.677174257522855,     1.377964833171192,     0.974367498003439 ]
    - [     1.377964833171192,     1.086038497282045,     0.562551515457070 ]
    - [     0.974367498003439,     0.562551515457070,     0.688253562149440 ]
  - # (1, 2)
    - [    -0.200439086219247,    -0.022324733149683,    -0.015785907005445 ]
    - [    -0.022324764616060,     0.012457856434451,     0.003967349749512 ]
    - [    -0.015785849915099,     0.003967350425341,     0.009652545231608 ]
  - # (1, 3)
    - [    -0.060100111517154,    -0.103349469736518,    -0.004457121818216 ]
    - [    -0.103349430285467,    -0.127881150846544,    -0.015654666103503 ]
    - [    -0.004457123457156,    -0.015654657302056,     0.009652538881200 ]
  - # (1, 4)
    - [    -0.011189165707570,     0.032099862271566,     0.001095899016474 ]
    - [     0.032099859082609,    -0.048254843086257,     0.000632729030419 ]
    - [     0.001095857165913,     0.000632717051552,    -0.057883584019755 ]
  - # (1, 5)
    - [    -0.060100136012069,    -0.038652073820101,    -0.095953065505931 ]
    - [    -0.038652065903685,    -0.015468592451143,    -0.055398548467046 ]
    - [    -0.095953079275609,    -0.055398541118607,    -0.102759953799080 ]
  - # (1, 6)
    - [    -0.011189139975867,     0.011733173050773,     0.029898725818486 ]
    - [     0.011733188445422,    -0.056416031411247,     0.003518116479292 ]
    - [     0.029898718113089,     0.003518116959119,    -0.049722432541346 ]
  - # (1, 7)
    - [    -0.034948095391959,     0.025450399786783,     0.017996140026849 ]
    - [     0.025450417187677,    -0.032657080839898,     0.024134000354573 ]
    - [     0.017996135649602,     0.024133997953020,    -0.049722427525096 ]
  - # (1, 8)
    - [     0.002129597514628,    -0.006057024556628,    -0.004282942002680 ]
    - [    -0.006057000009129,     0.009123614360620,    -0.002472755941045 ]
    - [    -0.004282959696647,    -0.002472770123855,     0.010872134105496 ]
  - # (1, 9)
    - [    -0.867308259538796,    -0.042690665186507,    -0.030186627676880 ]
    - [     0.042690253405909,     0.061613444810451,    -0.044980330454645 ]
    - [     0.030187058957162,    -0.044980304218228,     0.093419351488535 ]
  - # (1, 10)
    - [    -0.867308096459886,    -0.042690636928244,    -0.030186624341439 ]
    - [     0.042690149224591,     0.061613428370340,    -0.044980329892901 ]
    - [     0.030187171698265,    -0.044980279845157,     0.093419335030278 ]
  - # (1, 11)
    - [     0.021670921575421,     0.020538472953542,    -0.001159130572519 ]
    - [    -0.020538462267395,     0.054156479044167,    -0.007667966917785 ]
    - [     0.001159105992143,    -0.007667988059484,     0.008992393216756 ]
  - # (1, 12)
    - [     0.021670917257729,     0.020538465989880,    -0.001159134653322 ]
    - [    -0.020538455790886,     0.054156481618120,    -0.007667964116416 ]
    - [     0.001159111443384,    -0.007667978303421,     0.008992393018305 ]
  - # (1, 13)
    - [     0.021670916882307,     0.005753331346430,     0.019750227765382 ]
    - [    -0.005753316979318,     0.009191002735006,     0.008229740857535 ]
    - [    -0.019750234333739,     0.008229722143448,     0.053957879188515 ]
  - # (1, 14)
    - [     0.021670913695690,     0.005753333744978,     0.019750232176055 ]
    - [    -0.005753316398197,     0.009191003443176,     0.008229740681879 ]
    - [    -0.019750233703495,     0.008229719752613,     0.053957875291165 ]
  - # (1, 15)
    - [     0.030906769015890,     0.027186931146283,     0.019224080421535 ]
    - [    -0.027186940926760,     0.021538897622989,    -0.076610685208505 ]
    - [    -0.019224059057250,    -0.076610712201619,     0.075710869809359 ]
  - # (1, 16)
    - [     0.030906773597649,     0.027186938432943,     0.019224081044832 ]
    - [    -0.027186943529277,     0.021538895052742,    -0.076610683847688 ]
    - [    -0.019224064672153,    -0.076610723926963,     0.075710869313909 ]
  - # (1, 17)
    - [    -0.170616932917168,    -0.359544394347889,    -0.054047430299516 ]
    - [    -0.444925327167444,    -0.635077879933686,    -0.003652244767176 ]
    - [    -0.023860614325979,     0.048632845285739,     0.093419357666307 ]
  - # (1, 18)
    - [     0.046035111131826,    -0.034605133840190,    -0.007220230063033 ]
    - [     0.006471816984799,     0.029792298937516,     0.002830166262465 ]
    - [    -0.006061128740068,     0.004837814022140,     0.008992387661731 ]
  - # (1, 19)
    - [    -0.170616865278788,    -0.359544268914077,    -0.054047403187257 ]
    - [    -0.444925250347669,    -0.635077800102029,    -0.003652232589116 ]
    - [    -0.023860684371444,     0.048632726814145,     0.093419337473162 ]
  - # (1, 20)
    - [     0.046035099110417,    -0.034605124937015,    -0.007220226082478 ]
    - [     0.006471819966302,     0.029792299806380,     0.002830144007478 ]
    - [    -0.006061117379771,     0.004837817629227,     0.008992394761062 ]
  - # (1, 21)
    - [     0.012310987013253,    -0.000349364222089,     0.017002269577131 ]
    - [     0.011157287550044,     0.018550948237139,     0.012989342168690 ]
    - [    -0.002747967579518,    -0.021219064283561,     0.053957861074202 ]
  - # (1, 22)
    - [     0.023880873926680,    -0.023130541979154,    -0.056734794625696 ]
    - [     0.031243358596448,     0.028564805862364,     0.054953852398892 ]
    - [    -0.075958866127403,     0.021656808230530,     0.075710862849587 ]
  - # (1, 23)
    - [     0.012310983960735,    -0.000349369859863,     0.017002273811139 ]
    - [     0.011157292340032,     0.018550936131252,     0.012989338836210 ]
    - [    -0.002747960590593,    -0.021219057719389,     0.053957873932611 ]
  - # (1, 24)
    - [     0.023880855275731,    -0.023130534885785,    -0.056734774754588 ]
    - [     0.031243356928667,     0.028564812701091,     0.054953869486834 ]
    - [    -0.075958870600108,     0.021656817117575,     0.075710882141337 ]
  - # (1, 25)
    - [    -0.170616925559076,    -0.170804550038474,    -0.320965693565855 ]
    - [    -0.170804684426635,     0.026611034238554,    -0.185309850286049 ]
    - [    -0.411526045730595,    -0.237594712435982,    -0.568269303355868 ]
  - # (1, 26)
    - [     0.046035102304554,    -0.018342327848265,    -0.030219303868769 ]
    - [    -0.003557175250014,     0.013713301230507,     0.010522586998973 ]
    - [     0.008122013631291,     0.008514962231482,     0.025071394582559 ]
  - # (1, 27)
    - [     0.012310979767297,     0.015913427282740,    -0.005996800709100 ]
    - [     0.001128296670367,     0.047437421081267,    -0.031431972243321 ]
    - [     0.011435156248636,     0.002776416133999,     0.025071388122425 ]
  - # (1, 28)
    - [     0.023880886235812,    -0.061200256495549,    -0.002896085180007 ]
    - [    -0.061200235648388,     0.094548779050716,    -0.001672050943512 ]
    - [     0.054776124061401,     0.031625023860027,     0.009726818647810 ]
  - # (1, 29)
    - [    -0.170617002791286,    -0.170804622289729,    -0.320965812564743 ]
    - [    -0.170804637509950,     0.026611075402005,    -0.185309766740877 ]
    - [    -0.411526120858754,    -0.237594765492261,    -0.568269404584297 ]
  - # (1, 30)
    - [     0.046035092180407,    -0.018342328623243,    -0.030219298304101 ]
    - [    -0.003557164594729,     0.013713302541293,     0.010522588062597 ]
    - [     0.008122019579787,     0.008514947442293,     0.025071405725892 ]
  - # (1, 31)
    - [     0.012310979535643,     0.015913440196056,    -0.005996810396042 ]
    - [     0.001128290949226,     0.047437415190814,    -0.031431971257913 ]
    - [     0.011435168694739,     0.002776420059699,     0.025071399779622 ]
  - # (1, 32)
    - [     0.023880898686612,    -0.061200250539911,    -0.002896085427148 ]
    - [    -0.061200240812096,     0.094548820273783,    -0.001672051956541 ]
    - [     0.054776099201965,     0.031625015610451,     0.009726817215197 ]
  - # (1, 33)
    - [     0.053791271172295,     0.036808436823615,     0.026027469675619 ]
    - [     0.036808445830049,     0.011288573973536,     0.015026975401125 ]
    - [     0.026027459781973,     0.015026970917057,     0.000662872224948 ]
  - # (1, 34)
    - [    -0.063208077904326,     0.105623933979321,     0.074687407878931 ]
    - [    -0.097317322106767,    -0.114517604489122,    -0.120667570417555 ]
    - [    -0.068813696861294,    -0.120667663428216,    -0.029192721582386 ]
  - # (1, 35)
    - [    -0.098093452659678,    -0.077176283172900,    -0.067157562201782 ]
    - [     0.125765003194825,    -0.079632300929260,     0.125014978291414 ]
    - [    -0.138908137406217,     0.000739361097877,    -0.029192726630592 ]
  - # (1, 36)
    - [     0.014622428269529,     0.008400551964926,    -0.026959270216321 ]
    - [     0.008400556206673,     0.004922320872100,    -0.015564933684793 ]
    - [     0.005291357287197,     0.003054977366818,    -0.009472560258397 ]
  - # (1, 37)
    - [    -0.098093366269495,    -0.089042179430324,    -0.050376631085241 ]
    - [    -0.089042174569944,     0.004723620472930,    -0.029084969533173 ]
    - [     0.164875052345291,     0.095190698792625,    -0.113548736278284 ]
  - # (1, 38)
    - [     0.014622441736283,    -0.022617248262803,     0.016906531577444 ]
    - [     0.007788962548857,    -0.011804643917422,     0.008968854473633 ]
    - [     0.006156307152669,    -0.009651066153184,     0.007254374479748 ]
  - # (1, 39)
    - [    -0.011618716125276,     0.022939280180959,     0.016220517564045 ]
    - [    -0.007466911699373,     0.014436517785114,     0.010157070694419 ]
    - [    -0.005279918409501,     0.010157056144420,     0.007254376316418 ]
  - # (1, 40)
    - [     0.007147910888596,     0.017906050516782,     0.012661475554846 ]
    - [     0.017906058236992,    -0.013528202367460,     0.007310112368682 ]
    - [     0.012661466387066,     0.007310106195296,    -0.018697246149070 ]
  - # (1, 41)
    - [     0.053791274443211,     0.036808429604683,     0.026027482091178 ]
    - [     0.036808451612241,     0.011288588474422,     0.015026982413574 ]
    - [     0.026027450867881,     0.015026958045461,     0.000662863385787 ]
  - # (1, 42)
    - [    -0.063208064351488,     0.105623923726319,     0.074687391972089 ]
    - [    -0.097317366674525,    -0.114517652158678,    -0.120667594802074 ]
    - [    -0.068813713861975,    -0.120667727294546,    -0.029192773123741 ]
  - # (1, 43)
    - [    -0.098093451267312,    -0.077176287031227,    -0.067157557568608 ]
    - [     0.125764991514119,    -0.079632301158849,     0.125014968931601 ]
    - [    -0.138908151208703,     0.000739355373816,    -0.029192731846409 ]
  - # (1, 44)
    - [     0.014622432839489,     0.008400553707852,    -0.026959268580666 ]
    - [     0.008400562485577,     0.004922316473767,    -0.015564945506930 ]
    - [     0.005291360400580,     0.003054972382641,    -0.009472572452173 ]
  - # (1, 45)
    - [    -0.098093371783260,    -0.089042180574959,    -0.050376638937009 ]
    - [    -0.089042171777931,     0.004723617977776,    -0.029084973615574 ]
    - [     0.164875053229416,     0.095190700243419,    -0.113548745760061 ]
  - # (1, 46)
    - [     0.014622444732965,    -0.022617248264941,     0.016906533654517 ]
    - [     0.007788958203510,    -0.011804641717670,     0.008968856265967 ]
    - [     0.006156308551255,    -0.009651064743083,     0.007254375482368 ]
  - # (1, 47)
    - [    -0.011618714737870,     0.022939280539721,     0.016220516824726 ]
    - [    -0.007466908368456,     0.014436519029850,     0.010157067933674 ]
    - [    -0.005279920419538,     0.010157059486676,     0.007254378329031 ]
  - # (1, 48)
    - [     0.007147912194066,     0.017906048518724,     0.012661476739674 ]
    - [     0.017906057323970,    -0.013528201109017,     0.007310111687631 ]
    - [     0.012661464138462,     0.007310106424034,    -0.018697248669814 ]
  - # (2, 1)
    - [    -0.200439086219247,    -0.022324764616060,    -0.015785849915099 ]
    - [    -0.022324733149683,     0.012457856434451,     0.003967350425341 ]
    - [    -0.015785907005445,     0.003967349749512,     0.009652545231608 ]
  - # (2, 2)
    - [     2.677174256606125,     1.377965483015931,     0.974366570242563 ]
    - [     1.377965483015931,     1.086039046021045,     0.562551314059615 ]
    - [     0.974366570242563,     0.562551314059615,     0.688253006126612 ]
  - # (2, 3)
    - [    -0.011189141389624,     0.032099831086061,     0.001095918778375 ]
    - [     0.032099838114807,    -0.048254855146633,     0.000632693968535 ]
    - [     0.001095911085610,     0.000632687449717,    -0.057883582723552 ]
  - # (2, 4)
    - [    -0.060100149493900,    -0.103349468832761,    -0.004457101979687 ]
    - [    -0.103349455374986,    -0.127881132177524,    -0.015654643174952 ]
    - [    -0.004457097411560,    -0.015654617407240,     0.009652550967958 ]
  - # (2, 5)
    - [    -0.011189149385724,     0.011733171849967,     0.029898736395565 ]
    - [     0.011733155380241,    -0.056416035150602,     0.003518107463681 ]
    - [     0.029898750908269,     0.003518132483615,    -0.049722436958794 ]