# Thermal properties / unit cell (natom)

unit:
  temperature:   K
  free_energy:   kJ/mol
  entropy:       J/K/mol
  heat_capacity: J/K/mol

natom: 6    
cutoff_frequency: 0.00000
num_modes: 191664
num_integrated_modes: 155833

zero_point_energy:      15.2185673

thermal_properties:
- temperature:         0.0000000
  free_energy:        15.2185673
  entropy:             0.0000000
  heat_capacity:       0.0000000
  energy:             15.2185673

- temperature:        10.0000000
  free_energy:        15.2070090
  entropy:             3.7984019
  heat_capacity:       8.6544181
  energy:             15.2449930

- temperature:        20.0000000
  free_energy:        15.1127725
  entropy:            15.9011991
  heat_capacity:      27.7806469
  energy:             15.4307965

- temperature:        30.0000000
  free_energy:        14.8840831
  entropy:            29.7579256
  heat_capacity:      40.4662654
  energy:             15.7768209

- temperature:        40.0000000
  free_energy:        14.5210155
  entropy:            42.6558063
  heat_capacity:      49.1987601
  energy:             16.2272477

- temperature:        50.0000000
  free_energy:        14.0348436
  entropy:            54.3973619
  heat_capacity:      56.0640533
  energy:             16.7547117

- temperature:        60.0000000
  free_energy:        13.4363980
  entropy:            65.1394157
  heat_capacity:      61.7896576
  energy:             17.3447629

- temperature:        70.0000000
  free_energy:        12.7348472
  entropy:            75.0429022
  heat_capacity:      66.7156549
  energy:             17.9878504

- temperature:        80.0000000
  free_energy:        11.9378887
  entropy:            84.2409101
  heat_capacity:      71.0648317
  energy:             18.6771615

- temperature:        90.0000000
  free_energy:        11.0520191
  entropy:            92.8411694
  heat_capacity:      74.9852486
  energy:             19.4077244

- temperature:       100.0000000
  free_energy:        10.0827690
  entropy:           100.9297196
  heat_capacity:      78.5667196
  energy:             20.1757410

- temperature:       110.0000000
  free_energy:         9.0349023
  entropy:           108.5745284
  heat_capacity:      81.8599678
  energy:             20.9781004

- temperature:       120.0000000
  free_energy:         7.9125779
  entropy:           115.8291521
  heat_capacity:      84.8936160
  energy:             21.8120761

- temperature:       130.0000000
  free_energy:         6.7194773
  entropy:           122.7360837
  heat_capacity:      87.6857809
  energy:             22.6751682

- temperature:       140.0000000
  free_energy:         5.4589005
  entropy:           129.3295260
  heat_capacity:      90.2506392
  energy:             23.5650341

- temperature:       150.0000000
  free_energy:         4.1338377
  entropy:           135.6375334
  heat_capacity:      92.6015465
  energy:             24.4794677

- temperature:       160.0000000
  free_energy:         2.7470226
  entropy:           141.6835924
  heat_capacity:      94.7521718
  energy:             25.4163974

- temperature:       170.0000000
  free_energy:         1.3009719
  entropy:           147.4877574
  heat_capacity:      96.7166491
  energy:             26.3738906

- temperature:       180.0000000
  free_energy:        -0.2019846
  entropy:           153.0674571
  heat_capacity:      98.5093275
  energy:             27.3501577

- temperature:       190.0000000
  free_energy:        -1.7596805
  entropy:           158.4380654
  heat_capacity:     100.1444188
  energy:             28.3435520

- temperature:       200.0000000
  free_energy:        -3.3700948
  entropy:           163.6133077
  heat_capacity:     101.6356801
  energy:             29.3525667

- temperature:       210.0000000
  free_energy:        -5.0313368
  entropy:           168.6055549
  heat_capacity:     102.9961753
  energy:             30.3758298

- temperature:       220.0000000
  free_energy:        -6.7416335
  entropy:           173.4260393
  heat_capacity:     104.2381218
  energy:             31.4120952

- temperature:       230.0000000
  free_energy:        -8.4993193
  entropy:           178.0850177
  heat_capacity:     105.3728099
  energy:             32.4602348

- temperature:       240.0000000
  free_energy:       -10.3028269
  entropy:           182.5918972
  heat_capacity:     106.4105784
  energy:             33.5192284

- temperature:       250.0000000
  free_energy:       -12.1506792
  entropy:           186.9553355
  heat_capacity:     107.3608291
  energy:             34.5881547

- temperature:       260.0000000
  free_energy:       -14.0414822
  entropy:           191.1833227
  heat_capacity:     108.2320675
  energy:             35.6661817

- temperature:       270.0000000
  free_energy:       -15.9739188
  entropy:           195.2832487
  heat_capacity:     109.0319590
  energy:             36.7525583

- temperature:       280.0000000
  free_energy:       -17.9467432
  entropy:           199.2619617
  heat_capacity:     109.7673938
  energy:             37.8466061

- temperature:       290.0000000
  free_energy:       -19.9587752
  entropy:           203.1258182
  heat_capacity:     110.4445533
  energy:             38.9477120

- temperature:       300.0000000
  free_energy:       -22.0088964
  entropy:           206.8807263
  heat_capacity:     111.0689773
  energy:             40.0553215

- temperature:       310.0000000
  free_energy:       -24.0960450
  entropy:           210.5321850
  heat_capacity:     111.6456275
  energy:             41.1689324

- temperature:       320.0000000
  free_energy:       -26.2192124
  entropy:           214.0853189
  heat_capacity:     112.1789474
  energy:             42.2880896

- temperature:       330.0000000
  free_energy:       -28.3774396
  entropy:           217.5449084
  heat_capacity:     112.6729171
  energy:             43.4123802

- temperature:       340.0000000
  free_energy:       -30.5698137
  entropy:           220.9154188
  heat_capacity:     113.1311031
  energy:             44.5414287

- temperature:       350.0000000
  free_energy:       -32.7954650
  entropy:           224.2010247
  heat_capacity:     113.5567042
  energy:             45.6748937

- temperature:       360.0000000
  free_energy:       -35.0535642
  entropy:           227.4056334
  heat_capacity:     113.9525913
  energy:             46.8124638

- temperature:       370.0000000
  free_energy:       -37.3433199
  entropy:           230.5329053
  heat_capacity:     114.3213441
  energy:             47.9538551

- temperature:       380.0000000
  free_energy:       -39.6639760
  entropy:           233.5862736
  heat_capacity:     114.6652826
  energy:             49.0988080

- temperature:       390.0000000
  free_energy:       -42.0148098
  entropy:           236.5689610
  heat_capacity:     114.9864966
  energy:             50.2470850

- temperature:       400.0000000
  free_energy:       -44.3951297
  entropy:           239.4839955
  heat_capacity:     115.2868701
  energy:             51.3984685

- temperature:       410.0000000
  free_energy:       -46.8042737
  entropy:           242.3342252
  heat_capacity:     115.5681043
  energy:             52.5527586

- temperature:       420.0000000
  free_energy:       -49.2416071
  entropy:           245.1223311
  heat_capacity:     115.8317372
  energy:             53.7097719

- temperature:       430.0000000
  free_energy:       -51.7065217
  entropy:           247.8508396
  heat_capacity:     116.0791610
  energy:             54.8693394

- temperature:       440.0000000
  free_energy:       -54.1984332
  entropy:           250.5221331
  heat_capacity:     116.3116380
  energy:             56.0313053

- temperature:       450.0000000
  free_energy:       -56.7167811
  entropy:           253.1384606
  heat_capacity:     116.5303138
  energy:             57.1955261

- temperature:       460.0000000
  free_energy:       -59.2610263
  entropy:           255.7019466
  heat_capacity:     116.7362300
  energy:             58.3618691

- temperature:       470.0000000
  free_energy:       -61.8306506
  entropy:           258.2146000
  heat_capacity:     116.9303344
  energy:             59.5302114

- temperature:       480.0000000
  free_energy:       -64.4251552
  entropy:           260.6783219
  heat_capacity:     117.1134913
  energy:             60.7004393

- temperature:       490.0000000
  free_energy:       -67.0440600
  entropy:           263.0949129
  heat_capacity:     117.2864891
  energy:             61.8724474

- temperature:       500.0000000
  free_energy:       -69.6869021
  entropy:           265.4660794
  heat_capacity:     117.4500484
  energy:             63.0461376

- temperature:       510.0000000
  free_energy:       -72.3532355
  entropy:           267.7934404
  heat_capacity:     117.6048288
  energy:             64.2214191

- temperature:       520.0000000
  free_energy:       -75.0426300
  entropy:           270.0785326
  heat_capacity:     117.7514343
  energy:             65.3982070

- temperature:       530.0000000
  free_energy:       -77.7546702
  entropy:           272.3228161
  heat_capacity:     117.8904191
  energy:             66.5764224

- temperature:       540.0000000
  free_energy:       -80.4889549
  entropy:           274.5276788
  heat_capacity:     118.0222923
  energy:             67.7559916

- temperature:       550.0000000
  free_energy:       -83.2450967
  entropy:           276.6944415
  heat_capacity:     118.1475220
  energy:             68.9368461

- temperature:       560.0000000
  free_energy:       -86.0227210
  entropy:           278.8243613
  heat_capacity:     118.2665392
  energy:             70.1189214

- temperature:       570.0000000
  free_energy:       -88.8214652
  entropy:           280.9186362
  heat_capacity:     118.3797409
  energy:             71.3021575

- temperature:       580.0000000
  free_energy:       -91.6409787
  entropy:           282.9784081
  heat_capacity:     118.4874939
  energy:             72.4864980

- temperature:       590.0000000
  free_energy:       -94.4809220
  entropy:           285.0047665
  heat_capacity:     118.5901367
  energy:             73.6718903

- temperature:       600.0000000
  free_energy:       -97.3409661
  entropy:           286.9987515
  heat_capacity:     118.6879824
  energy:             74.8582848

- temperature:       610.0000000
  free_energy:      -100.2207924
  entropy:           288.9613563
  heat_capacity:     118.7813210
  energy:             76.0456349

- temperature:       620.0000000
  free_energy:      -103.1200918
  entropy:           290.8935304
  heat_capacity:     118.8704211
  energy:             77.2338971

- temperature:       630.0000000
  free_energy:      -106.0385646
  entropy:           292.7961820
  heat_capacity:     118.9555320
  energy:             78.4230301

- temperature:       640.0000000
  free_energy:      -108.9759199
  entropy:           294.6701799
  heat_capacity:     119.0368851
  energy:             79.6129952

- temperature:       650.0000000
  free_energy:      -111.9318755
  entropy:           296.5163560
  heat_capacity:     119.1146956
  energy:             80.8037560

- temperature:       660.0000000
  free_energy:      -114.9061570
  entropy:           298.3355075
  heat_capacity:     119.1891636
  energy:             81.9952780

- temperature:       670.0000000
  free_energy:      -117.8984981
  entropy:           300.1283982
  heat_capacity:     119.2604755
  energy:             83.1875287

- temperature:       680.0000000
  free_energy:      -120.9086398
  entropy:           301.8957608
  heat_capacity:     119.3288052
  energy:             84.3804775

- temperature:       690.0000000
  free_energy:      -123.9363305
  entropy:           303.6382985
  heat_capacity:     119.3943146
  energy:             85.5740954

- temperature:       700.0000000
  free_energy:      -126.9813253
  entropy:           305.3566861
  heat_capacity:     119.4571552
  energy:             86.7683549

- temperature:       710.0000000
  free_energy:      -130.0433859
  entropy:           307.0515719
  heat_capacity:     119.5174684
  energy:             87.9632301

- temperature:       720.0000000
  free_energy:      -133.1222805
  entropy:           308.7235789
  heat_capacity:     119.5753865
  energy:             89.1586963

- temperature:       730.0000000
  free_energy:      -136.2177832
  entropy:           310.3733062
  heat_capacity:     119.6310335
  energy:             90.3547303

- temperature:       740.0000000
  free_energy:      -139.3296743
  entropy:           312.0013298
  heat_capacity:     119.6845253
  energy:             91.5513098

- temperature:       750.0000000
  free_energy:      -142.4577393
  entropy:           313.6082044
  heat_capacity:     119.7359707
  energy:             92.7484139

- temperature:       760.0000000
  free_energy:      -145.6017696
  entropy:           315.1944636
  heat_capacity:     119.7854719
  energy:             93.9460227

- temperature:       770.0000000
  free_energy:      -148.7615616
  entropy:           316.7606219
  heat_capacity:     119.8331247
  energy:             95.1441172

- temperature:       780.0000000
  free_energy:      -151.9369167
  entropy:           318.3071745
  heat_capacity:     119.8790192
  energy:             96.3426794

- temperature:       790.0000000
  free_energy:      -155.1276413
  entropy:           319.8345992
  heat_capacity:     119.9232400
  energy:             97.5416920

- temperature:       800.0000000
  free_energy:      -158.3335465
  entropy:           321.3433567
  heat_capacity:     119.9658669
  energy:             98.7411389

- temperature:       810.0000000
  free_energy:      -161.5544477
  entropy:           322.8338914
  heat_capacity:     120.0069750
  energy:             99.9410043

- temperature:       820.0000000
  free_energy:      -164.7901650
  entropy:           324.3066324
  heat_capacity:     120.0466349
  energy:            101.1412735

- temperature:       830.0000000
  free_energy:      -168.0405225
  entropy:           325.7619938
  heat_capacity:     120.0849135
  energy:            102.3419324

- temperature:       840.0000000
  free_energy:      -171.3053483
  entropy:           327.2003758
  heat_capacity:     120.1218735
  energy:            103.5429674

- temperature:       850.0000000
  free_energy:      -174.5844747
  entropy:           328.6221651
  heat_capacity:     120.1575745
  energy:            104.7443657

- temperature:       860.0000000
  free_energy:      -177.8777375
  entropy:           330.0277354
  heat_capacity:     120.1920725
  energy:            105.9461149

- temperature:       870.0000000
  free_energy:      -181.1849765
  entropy:           331.4174480
  heat_capacity:     120.2254207
  energy:            107.1482033

- temperature:       880.0000000
  free_energy:      -184.5060348
  entropy:           332.7916528
  heat_capacity:     120.2576691
  energy:            108.3506196

- temperature:       890.0000000
  free_energy:      -187.8407590
  entropy:           334.1506878
  heat_capacity:     120.2888653
  energy:            109.5533532

- temperature:       900.0000000
  free_energy:      -191.1889991
  entropy:           335.4948807
  heat_capacity:     120.3190544
  energy:            110.7563936

- temperature:       910.0000000
  free_energy:      -194.5506082
  entropy:           336.8245486
  heat_capacity:     120.3482788
  energy:            111.9597310

- temperature:       920.0000000
  free_energy:      -197.9254427
  entropy:           338.1399986
  heat_capacity:     120.3765790
  energy:            113.1633561

- temperature:       930.0000000
  free_energy:      -201.3133618
  entropy:           339.4415284
  heat_capacity:     120.4039933
  energy:            114.3672597

- temperature:       940.0000000
  free_energy:      -204.7142278
  entropy:           340.7294265
  heat_capacity:     120.4305582
  energy:            115.5714331

- temperature:       950.0000000
  free_energy:      -208.1279058
  entropy:           342.0039725
  heat_capacity:     120.4563080
  energy:            116.7758681

- temperature:       960.0000000
  free_energy:      -211.5542636
  entropy:           343.2654378
  heat_capacity:     120.4812757
  energy:            117.9805567

- temperature:       970.0000000
  free_energy:      -214.9931718
  entropy:           344.5140855
  heat_capacity:     120.5054924
  energy:            119.1854911

- temperature:       980.0000000
  free_energy:      -218.4445035
  entropy:           345.7501710
  heat_capacity:     120.5289877
  energy:            120.3906641

- temperature:       990.0000000
  free_energy:      -221.9081342
  entropy:           346.9739422
  heat_capacity:     120.5517899
  energy:            121.5960686

- temperature:      1000.0000000
  free_energy:      -225.3839421
  entropy:           348.1856398
  heat_capacity:     120.5739258
  energy:            122.8016977
