# Tetrahedron method
       -2.4993065768        0.0000000000
       -2.4228138797        0.0000000000
       -2.3463211826        0.0000000000
       -2.2698284855        0.0000000000
       -2.1933357884        0.0000000000
       -2.1168430913        0.0000000000
       -2.0403503942        0.0000000000
       -1.9638576971        0.0000000000
       -1.8873650000        0.0000000000
       -1.8108723029        0.0000000000
       -1.7343796058        0.0000000000
       -1.6578869087        0.0000000000
       -1.5813942116        0.0000000000
       -1.5049015145        0.0000000000
       -1.4284088174        0.0000000000
       -1.3519161203        0.0000000000
       -1.2754234232        0.0000000000
       -1.1989307261        0.0863858188
       -1.1224380290        0.1999391695
       -1.0459453319        0.3031108820
       -0.9694526348        0.4255148286
       -0.8929599377        0.5931131575
       -0.8164672407        0.7854403977
       -0.7399745436        1.3135321677
       -0.6634818465        2.1966213677
       -0.5869891494        1.7499630350
       -0.5104964523        1.3399002608
       -0.4340037552        0.9754994323
       -0.3575110581        0.7582935178
       -0.2810183610        0.5530446418
       -0.2045256639        0.5082140090
       -0.1280329668        0.4724684604
       -0.0515402697        0.4463676600
        0.0249524274        0.4550513394
        0.1014451245        0.4757832565
        0.1779378216        0.5128724239
        0.2544305187        0.6225387425
        0.3309232158        0.8180789345
        0.4074159129        0.8760161778
        0.4839086100        1.0743023852
        0.5604013071        1.5750608349
        0.6368940042        2.0198784893
        0.7133867013        2.2850387152
        0.7898793984        2.5868866350
        0.8663720955        2.9452157568
        0.9428647926        3.2689741974
        1.0193574896        3.8972414398
        1.0958501867        4.4204112408
        1.1723428838        5.5978720347
        1.2488355809        5.2501620285
        1.3253282780        5.0675126208
        1.4018209751        5.1373357585
        1.4783136722        5.3985439586
        1.5548063693        5.0653071879
        1.6312990664        5.7599582037
        1.7077917635        4.9926640373
        1.7842844606        5.1729252041
        1.8607771577        5.9522159569
        1.9372698548        5.3447602116
        2.0137625519        5.6979293377
        2.0902552490        5.2576514138
        2.1667479461        3.8355360290
        2.2432406432        3.8043160393
        2.3197333403        4.6259070860
        2.3962260374        4.2343429029
        2.4727187345        5.3482027646
        2.5492114316        4.4096322538
        2.6257041287        4.7869723079
        2.7021968258        4.2438114253
        2.7786895228        3.6168242223
        2.8551822199        4.2576974463
        2.9316749170        2.6135082374
        3.0081676141        1.8031415088
        3.0846603112        7.0001230735
        3.1611530083        2.9851666122
        3.2376457054        1.7978295235
        3.3141384025        2.7113024274
        3.3906310996        4.5564222071
        3.4671237967        4.0094748788
        3.5436164938        7.9990486008
        3.6201091909        5.1164284395
        3.6966018880        2.9777760911
        3.7730945851        4.2364850119
        3.8495872822        7.0253393008
        3.9260799793        5.2377799978
        4.0025726764        2.1945530533
        4.0790653735        2.8992696927
        4.1555580706        5.9639936967
        4.2320507677        7.2554758164
        4.3085434648        6.1090699454
        4.3850361619        0.0000000000
        4.4615288590        0.0000000000
        4.5380215561        0.0000000000
        4.6145142531        0.0000000000
        4.6910069502        0.0000000000
        4.7674996473        0.0000000000
        4.8439923444        0.0000000000
        4.9204850415        0.0000000000
        4.9969777386        0.0000000000
        5.0734704357        0.0000000000
        5.1499631328        0.0000000000
        5.2264558299        0.0000000000
        5.3029485270        0.5128557781
        5.3794412241        6.7921903747
        5.4559339212        1.9201234579
        5.5324266183        0.0000000000
        5.6089193154        0.0000000000
        5.6854120125        0.0000000000
        5.7619047096        6.1755143524
        5.8383974067        6.3179325470
        5.9148901038        3.6654736511
        5.9913828009        7.0813837357
        6.0678754980        3.2809436531
        6.1443681951        2.7979312420
        6.2208608922        5.7878575170
        6.2973535893        3.4404667960
        6.3738462864        3.9523133822
        6.4503389834        5.5359835811
        6.5268316805        3.2717767649
        6.6033243776        3.9024494997
        6.6798170747        4.0772353723
        6.7563097718        3.4871250551
        6.8328024689        1.4785433838
        6.9092951660        3.6412442723
        6.9857878631        6.2066103823
        7.0622805602        0.7272720605
        7.1387732573        3.3924913275
        7.2152659544        3.1899435169
        7.2917586515        5.7173027986
        7.3682513486        5.5557955881
        7.4447440457       12.4369479064
        7.5212367428        3.1707532661
        7.5977294399        3.7668786539
        7.6742221370        2.1338342713
        7.7507148341        1.9039360750
        7.8272075312        2.3461861625
        7.9037002283        3.7194416263
        7.9801929254        8.7821662581
        8.0566856225        2.8206489475
        8.1331783196        1.0630673941
        8.2096710167        3.3276656885
        8.2861637137        4.9463375211
        8.3626564108        2.7583524697
        8.4391491079        1.0791836004
        8.5156418050        3.3846193114
        8.5921345021        5.2005077427
        8.6686271992        3.6635200392
        8.7451198963        2.9629730099
        8.8216125934        3.5650181624
        8.8981052905        3.2293151049
        8.9745979876        2.1875423515
        9.0510906847        0.8497622735
        9.1275833818        3.2376272011
        9.2040760789        6.3399959842
        9.2805687760        0.1723823566
        9.3570614731        3.2487486195
        9.4335541702        4.4131244845
        9.5100468673        3.5029287806
        9.5865395644        3.8193399015
        9.6630322615        4.4692993326
        9.7395249586        4.1412283175
        9.8160176557        2.2106100184
        9.8925103528        5.8575974752
        9.9690030499        2.9035214228
       10.0454957470        5.2923776475
       10.1219884440        5.7338853471
       10.1984811411        6.5621311760
       10.2749738382        5.2178244846
       10.3514665353        4.2779917672
       10.4279592324        2.8152075128
       10.5044519295        3.2546236378
       10.5809446266        6.8448239688
       10.6574373237        4.1431261665
       10.7339300208        2.8205608249
       10.8104227179        6.3516399862
       10.8869154150        3.5526801956
       10.9634081121        1.1602149493
       11.0399008092        0.2018782778
       11.1163935063        0.3942351016
       11.1928862034        0.9322919528
       11.2693789005        2.5725581934
       11.3458715976        2.6051955752
       11.4223642947        3.0248898990
       11.4988569918        6.2463805174
       11.5753496889        0.0000000000
       11.6518423860        0.0000000000
       11.7283350831        0.0000000000
       11.8048277802        0.0000000000
       11.8813204773        0.0000000000
       11.9578131743        0.0000000000
       12.0343058714        0.0000000000
       12.1107985685        0.0000000000
       12.1872912656        0.0000000000
       12.2637839627        0.0000000000
       12.3402766598        0.0000000000
       12.4167693569        0.0000000000
       12.4932620540        0.0000000000
       12.5697547511        0.0000000000
       12.6462474482        0.0000000000
       12.7227401453        0.0000000000
       12.7992328424        0.0000000000
