# Tetrahedron method
       -2.0457607928        0.0000000000
       -1.9804117256        0.0000000000
       -1.9150626583        0.0000000000
       -1.8497135911        0.0000000000
       -1.7843645239        0.0000000000
       -1.7190154567        0.0000000000
       -1.6536663894        0.0000000000
       -1.5883173222        0.0000000000
       -1.5229682550        0.0000000000
       -1.4576191878        0.0000000000
       -1.3922701205        0.0000000000
       -1.3269210533        0.0000000000
       -1.2615719861        0.0000000000
       -1.1962229189        0.0000000000
       -1.1308738516        0.0000000000
       -1.0655247844        0.0000000000
       -1.0001757172        0.0000000000
       -0.9348266500        0.0022238054
       -0.8694775827        0.0091993428
       -0.8041285155        0.0158219437
       -0.7387794483        0.0180286405
       -0.6734303811        0.0169668389
       -0.6080813138        0.0181369534
       -0.5427322466        0.0160621262
       -0.4773831794        0.0132444931
       -0.4120341122        0.0123029330
       -0.3466850449        0.0126078107
       -0.2813359777        0.0132839337
       -0.2159869105        0.0138455967
       -0.1506378433        0.0145172237
       -0.0852887760        0.0152515406
       -0.0199397088        0.0160593119
        0.0454093584        0.0169689310
        0.1107584257        0.0180641507
        0.1761074929        0.0193584923
        0.2414565601        0.0208571611
        0.3068056273        0.0217626203
        0.3721546946        0.0229063797
        0.4375037618        0.0244914845
        0.5028528290        0.0264442785
        0.5682018962        0.0286059263
        0.6335509635        0.0311731724
        0.6989000307        0.0348246963
        0.7642490979        0.0389378666
        0.8295981651        0.0431581310
        0.8949472324        0.0481294263
        0.9602962996        0.0531218621
        1.0256453668        0.0574196670
        1.0909944340        0.0613977223
        1.1563435013        0.0647692936
        1.2216925685        0.0685104148
        1.2870416357        0.0728761665
        1.3523907029        0.0768364577
        1.4177397702        0.0808480860
        1.4830888374        0.0858023266
        1.5484379046        0.0901177974
        1.6137869718        0.0950715076
        1.6791360391        0.1000848616
        1.7444851063        0.1053592745
        1.8098341735        0.1103293169
        1.8751832407        0.1161550172
        1.9405323080        0.1213556541
        2.0058813752        0.1266716673
        2.0712304424        0.1330692996
        2.1365795096        0.1399469468
        2.2019285769        0.1470284961
        2.2672776441        0.1551789062
        2.3326267113        0.1630996085
        2.3979757785        0.1705928156
        2.4633248458        0.1809759146
        2.5286739130        0.1898590313
        2.5940229802        0.2023229449
        2.6593720474        0.2163056881
        2.7247211147        0.2341951548
        2.7900701819        0.2673608872
        2.8554192491        0.2745093525
        2.9207683163        0.2786115792
        2.9861173836        0.2853832000
        3.0514664508        0.2897729899
        3.1168155180        0.2935332139
        3.1821645852        0.3000048003
        3.2475136525        0.3065404263
        3.3128627197        0.3110710852
        3.3782117869        0.3158335330
        3.4435608541        0.3212089479
        3.5089099214        0.3262943272
        3.5742589886        0.3315047051
        3.6396080558        0.3366878256
        3.7049571230        0.3425656972
        3.7703061903        0.3487546942
        3.8356552575        0.3546905550
        3.9010043247        0.3588351049
        3.9663533920        0.3634877805
        4.0317024592        0.3691577096
        4.0970515264        0.3752257565
        4.1624005936        0.3824300059
        4.2277496609        0.3874379227
        4.2930987281        0.3919663899
        4.3584477953        0.3975000531
        4.4237968625        0.4043641203
        4.4891459298        0.4108976477
        4.5544949970        0.4162173932
        4.6198440642        0.4222589327
        4.6851931314        0.4279589944
        4.7505421987        0.4358227582
        4.8158912659        0.4430953990
        4.8812403331        0.4474897184
        4.9465894003        0.4541050071
        5.0119384676        0.4602707648
        5.0772875348        0.4710541599
        5.1426366020        0.4769608093
        5.2079856692        0.4838371525
        5.2733347365        0.4891529426
        5.3386838037        0.4956583127
        5.4040328709        0.4999569809
        5.4693819381        0.4599968786
        5.5347310054        0.4424102235
        5.6000800726        0.4335532978
        5.6654291398        0.4246868499
        5.7307782070        0.4167228608
        5.7961272743        0.4125814197
        5.8614763415        0.4077462606
        5.9268254087        0.4016621745
        5.9921744759        0.3991911285
        6.0575235432        0.3958109113
        6.1228726104        0.3926505339
        6.1882216776        0.3881551293
        6.2535707448        0.3854801051
        6.3189198121        0.3833181797
        6.3842688793        0.3803753073
        6.4496179465        0.3747148640
        6.5149670137        0.3621834611
        6.5803160810        0.3725272668
        6.6456651482        0.3733888293
        6.7110142154        0.3746946119
        6.7763632826        0.3770441612
        6.8417123499        0.3797429946
        6.9070614171        0.3815166365
        6.9724104843        0.3834460873
        7.0377595515        0.3839327319
        7.1031086188        0.3867958723
        7.1684576860        0.3883335646
        7.2338067532        0.3893414724
        7.2991558204        0.3895200978
        7.3645048877        0.3912649548
        7.4298539549        0.3928497327
        7.4952030221        0.3907819325
        7.5605520893        0.3914061467
        7.6259011566        0.3911724026
        7.6912502238        0.3914664506
        7.7565992910        0.3873639485
        7.8219483583        0.3864509532
        7.8872974255        0.3737815092
        7.9526464927        0.3438736877
        8.0179955599        0.3329618171
        8.0833446272        0.3269949493
        8.1486936944        0.3247659315
        8.2140427616        0.3245316638
        8.2793918288        0.3313022206
        8.3447408961        0.3444641333
        8.4100899633        0.3582854353
        8.4754390305        0.3854704331
        8.5407880977        0.4637479042
        8.6061371650        0.5245640073
        8.6714862322        0.5749760006
        8.7368352994        0.6243599654
        8.8021843666        0.6748698102
        8.8675334339        0.7201049472
        8.9328825011        0.7677542332
        8.9982315683        0.8250184767
        9.0635806355        0.5955053753
        9.1289297028        0.5041231218
        9.1942787700        0.4345036976
        9.2596278372        0.3741076309
        9.3249769044        0.3150997512
        9.3903259717        0.2515738117
        9.4556750389        0.1373379316
        9.5210241061        0.1243510553
        9.5863731733        0.1101777163
        9.6517222406        0.0979257119
        9.7170713078        0.0830839751
        9.7824203750        0.0673176502
        9.8477694422        0.0486789814
        9.9131185095        0.0242086255
        9.9784675767        0.0000000000
       10.0438166439        0.0000000000
       10.1091657111        0.0000000000
       10.1745147784        0.0000000000
       10.2398638456        0.0000000000
       10.3052129128        0.0000000000
       10.3705619800        0.0000000000
       10.4359110473        0.0000000000
       10.5012601145        0.0000000000
       10.5666091817        0.0000000000
       10.6319582489        0.0000000000
       10.6973073162        0.0000000000
       10.7626563834        0.0000000000
       10.8280054506        0.0000000000
       10.8933545178        0.0000000000
       10.9587035851        0.0000000000
       11.0240526523        0.0000000000
