# Thermal properties / unit cell (natom)

unit:
  temperature:   K
  free_energy:   kJ/mol
  entropy:       J/K/mol
  heat_capacity: J/K/mol

natom: 1    
cutoff_frequency: 0.00000
num_modes: 247107
num_integrated_modes: 225250

zero_point_energy:       1.2917568

thermal_properties:
- temperature:         0.0000000
  free_energy:         1.2917568
  entropy:             0.0000000
  heat_capacity:       0.0000000
  energy:              1.2917568

- temperature:        10.0000000
  free_energy:         1.2889636
  entropy:             0.8260932
  heat_capacity:       1.6357242
  energy:              1.2972246

- temperature:        20.0000000
  free_energy:         1.2700670
  entropy:             3.1557279
  heat_capacity:       5.6883876
  energy:              1.3331815

- temperature:        30.0000000
  free_energy:         1.2234810
  entropy:             6.2163753
  heat_capacity:       9.5493026
  energy:              1.4099722

- temperature:        40.0000000
  free_energy:         1.1453531
  entropy:             9.4042462
  heat_capacity:      12.6268524
  energy:              1.5215230

- temperature:        50.0000000
  free_energy:         1.0357712
  entropy:            12.4839947
  heat_capacity:      14.9466970
  energy:              1.6599710

- temperature:        60.0000000
  free_energy:         0.8963327
  entropy:            15.3679384
  heat_capacity:      16.6524440
  energy:              1.8184090

- temperature:        70.0000000
  free_energy:         0.7291423
  entropy:            18.0338157
  heat_capacity:      17.9039193
  energy:              1.9915094

- temperature:        80.0000000
  free_energy:         0.5363628
  entropy:            20.4881086
  heat_capacity:      18.8313823
  energy:              2.1754115

- temperature:        90.0000000
  free_energy:         0.3200274
  entropy:            22.7483085
  heat_capacity:      19.5293132
  energy:              2.3673751

- temperature:       100.0000000
  free_energy:         0.0819756
  entropy:            24.8347837
  heat_capacity:      20.0634433
  energy:              2.5654540

- temperature:       110.0000000
  free_energy:        -0.1761554
  entropy:            26.7673270
  heat_capacity:      20.4790846
  energy:              2.7682506

- temperature:       120.0000000
  free_energy:        -0.4529178
  entropy:            28.5638689
  heat_capacity:      20.8076444
  energy:              2.9747464

- temperature:       130.0000000
  free_energy:        -0.7470322
  entropy:            30.2401498
  heat_capacity:      21.0711566
  energy:              3.1841873

- temperature:       140.0000000
  free_energy:        -1.0573656
  entropy:            31.8097935
  heat_capacity:      21.2853092
  energy:              3.3960055

- temperature:       150.0000000
  free_energy:        -1.3829118
  entropy:            33.2845263
  heat_capacity:      21.4614468
  energy:              3.6097671

- temperature:       160.0000000
  free_energy:        -1.7227735
  entropy:            34.6744327
  heat_capacity:      21.6079002
  energy:              3.8251357

- temperature:       170.0000000
  free_energy:        -2.0761468
  entropy:            35.9881991
  heat_capacity:      21.7308779
  energy:              4.0418470

- temperature:       180.0000000
  free_energy:        -2.4423088
  entropy:            37.2333312
  heat_capacity:      21.8350716
  energy:              4.2596908

- temperature:       190.0000000
  free_energy:        -2.8206065
  entropy:            38.4163388
  heat_capacity:      21.9240727
  energy:              4.4784979

- temperature:       200.0000000
  free_energy:        -3.2104475
  entropy:            39.5428922
  heat_capacity:      22.0006643
  energy:              4.6981309

- temperature:       210.0000000
  free_energy:        -3.6112927
  entropy:            40.6179518
  heat_capacity:      22.0670272
  energy:              4.9184772

- temperature:       220.0000000
  free_energy:        -4.0226495
  entropy:            41.6458757
  heat_capacity:      22.1248879
  energy:              5.1394432

- temperature:       230.0000000
  free_energy:        -4.4440660
  entropy:            42.6305095
  heat_capacity:      22.1756268
  energy:              5.3609512

- temperature:       240.0000000
  free_energy:        -4.8751268
  entropy:            43.5752603
  heat_capacity:      22.2203574
  energy:              5.5829357

- temperature:       250.0000000
  free_energy:        -5.3154484
  entropy:            44.4831590
  heat_capacity:      22.2599855
  energy:              5.8053414

- temperature:       260.0000000
  free_energy:        -5.7646761
  entropy:            45.3569117
  heat_capacity:      22.2952534
  energy:              6.0281209

- temperature:       270.0000000
  free_energy:        -6.2224809
  entropy:            46.1989439
  heat_capacity:      22.3267743
  energy:              6.2512339

- temperature:       280.0000000
  free_energy:        -6.6885566
  entropy:            47.0114364
  heat_capacity:      22.3550576
  energy:              6.4746456

- temperature:       290.0000000
  free_energy:        -7.1626178
  entropy:            47.7963569
  heat_capacity:      22.3805297
  energy:              6.6983257

- temperature:       300.0000000
  free_energy:        -7.6443978
  entropy:            48.5554860
  heat_capacity:      22.4035494
  energy:              6.9222480

- temperature:       310.0000000
  free_energy:        -8.1336469
  entropy:            49.2904402
  heat_capacity:      22.4244201
  energy:              7.1463896

- temperature:       320.0000000
  free_energy:        -8.6301309
  entropy:            50.0026908
  heat_capacity:      22.4434001
  energy:              7.3707301

- temperature:       330.0000000
  free_energy:        -9.1336295
  entropy:            50.6935804
  heat_capacity:      22.4607102
  energy:              7.5952520

- temperature:       340.0000000
  free_energy:        -9.6439354
  entropy:            51.3643377
  heat_capacity:      22.4765398
  energy:              7.8199394

- temperature:       350.0000000
  free_energy:       -10.1608529
  entropy:            52.0160896
  heat_capacity:      22.4910525
  energy:              8.0447784

- temperature:       360.0000000
  free_energy:       -10.6841973
  entropy:            52.6498719
  heat_capacity:      22.5043899
  energy:              8.2697565

- temperature:       370.0000000
  free_energy:       -11.2137937
  entropy:            53.2666389
  heat_capacity:      22.5166752
  energy:              8.4948627

- temperature:       380.0000000
  free_energy:       -11.7494763
  entropy:            53.8672716
  heat_capacity:      22.5280158
  energy:              8.7200869

- temperature:       390.0000000
  free_energy:       -12.2910880
  entropy:            54.4525852
  heat_capacity:      22.5385059
  energy:              8.9454202

- temperature:       400.0000000
  free_energy:       -12.8384795
  entropy:            55.0233349
  heat_capacity:      22.5482281
  energy:              9.1708545

- temperature:       410.0000000
  free_energy:       -13.3915085
  entropy:            55.5802219
  heat_capacity:      22.5572556
  energy:              9.3963824

- temperature:       420.0000000
  free_energy:       -13.9500399
  entropy:            56.1238985
  heat_capacity:      22.5656527
  energy:              9.6219975

- temperature:       430.0000000
  free_energy:       -14.5139445
  entropy:            56.6549723
  heat_capacity:      22.5734766
  energy:              9.8476936

- temperature:       440.0000000
  free_energy:       -15.0830992
  entropy:            57.1740102
  heat_capacity:      22.5807783
  energy:             10.0734653

- temperature:       450.0000000
  free_energy:       -15.6573864
  entropy:            57.6815420
  heat_capacity:      22.5876031
  energy:             10.2993076

- temperature:       460.0000000
  free_energy:       -16.2366934
  entropy:            58.1780636
  heat_capacity:      22.5939916
  energy:             10.5252159

- temperature:       470.0000000
  free_energy:       -16.8209125
  entropy:            58.6640394
  heat_capacity:      22.5999800
  energy:             10.7511861

- temperature:       480.0000000
  free_energy:       -17.4099405
  entropy:            59.1399056
  heat_capacity:      22.6056011
  energy:             10.9772143

- temperature:       490.0000000
  free_energy:       -18.0036783
  entropy:            59.6060719
  heat_capacity:      22.6108843
  energy:             11.2032969

- temperature:       500.0000000
  free_energy:       -18.6020309
  entropy:            60.0629235
  heat_capacity:      22.6158559
  energy:             11.4294309

- temperature:       510.0000000
  free_energy:       -19.2049069
  entropy:            60.5108235
  heat_capacity:      22.6205401
  energy:             11.6556131

- temperature:       520.0000000
  free_energy:       -19.8122186
  entropy:            60.9501143
  heat_capacity:      22.6249585
  energy:             11.8818408

- temperature:       530.0000000
  free_energy:       -20.4238816
  entropy:            61.3811189
  heat_capacity:      22.6291308
  energy:             12.1081115

- temperature:       540.0000000
  free_energy:       -21.0398144
  entropy:            61.8041427
  heat_capacity:      22.6330750
  energy:             12.3344227

- temperature:       550.0000000
  free_energy:       -21.6599388
  entropy:            62.2194746
  heat_capacity:      22.6368073
  energy:             12.5607723

- temperature:       560.0000000
  free_energy:       -22.2841792
  entropy:            62.6273881
  heat_capacity:      22.6403426
  energy:             12.7871582

- temperature:       570.0000000
  free_energy:       -22.9124627
  entropy:            63.0281424
  heat_capacity:      22.6436945
  energy:             13.0135785

- temperature:       580.0000000
  free_energy:       -23.5447190
  entropy:            63.4219835
  heat_capacity:      22.6468756
  energy:             13.2400315

- temperature:       590.0000000
  free_energy:       -24.1808801
  entropy:            63.8091450
  heat_capacity:      22.6498971
  energy:             13.4665155

- temperature:       600.0000000
  free_energy:       -24.8208804
  entropy:            64.1898488
  heat_capacity:      22.6527696
  energy:             13.6930289

- temperature:       610.0000000
  free_energy:       -25.4646562
  entropy:            64.5643060
  heat_capacity:      22.6555027
  energy:             13.9195704

- temperature:       620.0000000
  free_energy:       -26.1121463
  entropy:            64.9327175
  heat_capacity:      22.6581052
  energy:             14.1461385

- temperature:       630.0000000
  free_energy:       -26.7632911
  entropy:            65.2952749
  heat_capacity:      22.6605854
  energy:             14.3727321

- temperature:       640.0000000
  free_energy:       -27.4180329
  entropy:            65.6521606
  heat_capacity:      22.6629508
  energy:             14.5993499

- temperature:       650.0000000
  free_energy:       -28.0763160
  entropy:            66.0035488
  heat_capacity:      22.6652083
  energy:             14.8259908

- temperature:       660.0000000
  free_energy:       -28.7380861
  entropy:            66.3496058
  heat_capacity:      22.6673644
  energy:             15.0526537

- temperature:       670.0000000
  free_energy:       -29.4032908
  entropy:            66.6904904
  heat_capacity:      22.6694251
  energy:             15.2793377

- temperature:       680.0000000
  free_energy:       -30.0718792
  entropy:            67.0263546
  heat_capacity:      22.6713959
  energy:             15.5060419

- temperature:       690.0000000
  free_energy:       -30.7438017
  entropy:            67.3573435
  heat_capacity:      22.6732820
  energy:             15.7327654

- temperature:       700.0000000
  free_energy:       -31.4190103
  entropy:            67.6835965
  heat_capacity:      22.6750881
  energy:             15.9595073

- temperature:       710.0000000
  free_energy:       -32.0974583
  entropy:            68.0052467
  heat_capacity:      22.6768188
  energy:             16.1862669

- temperature:       720.0000000
  free_energy:       -32.7791003
  entropy:            68.3224218
  heat_capacity:      22.6784781
  energy:             16.4130434

- temperature:       730.0000000
  free_energy:       -33.4638922
  entropy:            68.6352444
  heat_capacity:      22.6800699
  energy:             16.6398362

- temperature:       740.0000000
  free_energy:       -34.1517911
  entropy:            68.9438320
  heat_capacity:      22.6815978
  energy:             16.8666446

- temperature:       750.0000000
  free_energy:       -34.8427551
  entropy:            69.2482974
  heat_capacity:      22.6830652
  energy:             17.0934680

- temperature:       760.0000000
  free_energy:       -35.5367436
  entropy:            69.5487491
  heat_capacity:      22.6844753
  energy:             17.3203057

- temperature:       770.0000000
  free_energy:       -36.2337171
  entropy:            69.8452914
  heat_capacity:      22.6858310
  energy:             17.5471573

- temperature:       780.0000000
  free_energy:       -36.9336368
  entropy:            70.1380243
  heat_capacity:      22.6871350
  energy:             17.7740222

- temperature:       790.0000000
  free_energy:       -37.6364652
  entropy:            70.4270443
  heat_capacity:      22.6883899
  energy:             18.0008998

- temperature:       800.0000000
  free_energy:       -38.3421656
  entropy:            70.7124442
  heat_capacity:      22.6895983
  energy:             18.2277898

- temperature:       810.0000000
  free_energy:       -39.0507023
  entropy:            70.9943135
  heat_capacity:      22.6907623
  energy:             18.4546916

- temperature:       820.0000000
  free_energy:       -39.7620404
  entropy:            71.2727381
  heat_capacity:      22.6918840
  energy:             18.6816049

- temperature:       830.0000000
  free_energy:       -40.4761458
  entropy:            71.5478012
  heat_capacity:      22.6929656
  energy:             18.9085292

- temperature:       840.0000000
  free_energy:       -41.1929855
  entropy:            71.8195828
  heat_capacity:      22.6940089
  energy:             19.1354641

- temperature:       850.0000000
  free_energy:       -41.9125268
  entropy:            72.0881601
  heat_capacity:      22.6950157
  energy:             19.3624092

- temperature:       860.0000000
  free_energy:       -42.6347382
  entropy:            72.3536076
  heat_capacity:      22.6959876
  energy:             19.5893643

- temperature:       870.0000000
  free_energy:       -43.3595888
  entropy:            72.6159973
  heat_capacity:      22.6969263
  energy:             19.8163289

- temperature:       880.0000000
  free_energy:       -44.0870482
  entropy:            72.8753988
  heat_capacity:      22.6978333
  energy:             20.0433027

- temperature:       890.0000000
  free_energy:       -44.8170870
  entropy:            73.1318792
  heat_capacity:      22.6987099
  energy:             20.2702854

- temperature:       900.0000000
  free_energy:       -45.5496763
  entropy:            73.3855034
  heat_capacity:      22.6995576
  energy:             20.4972768

- temperature:       910.0000000
  free_energy:       -46.2847878
  entropy:            73.6363344
  heat_capacity:      22.7003775
  energy:             20.7242765

- temperature:       920.0000000
  free_energy:       -47.0223939
  entropy:            73.8844327
  heat_capacity:      22.7011709
  energy:             20.9512843

- temperature:       930.0000000
  free_energy:       -47.7624675
  entropy:            74.1298574
  heat_capacity:      22.7019389
  energy:             21.1782998

- temperature:       940.0000000
  free_energy:       -48.5049823
  entropy:            74.3726652
  heat_capacity:      22.7026825
  energy:             21.4053230

- temperature:       950.0000000
  free_energy:       -49.2499123
  entropy:            74.6129113
  heat_capacity:      22.7034029
  energy:             21.6323534

- temperature:       960.0000000
  free_energy:       -49.9972321
  entropy:            74.8506491
  heat_capacity:      22.7041009
  energy:             21.8593910

- temperature:       970.0000000
  free_energy:       -50.7469171
  entropy:            75.0859303
  heat_capacity:      22.7047774
  energy:             22.0864354

- temperature:       980.0000000
  free_energy:       -51.4989427
  entropy:            75.3188053
  heat_capacity:      22.7054334
  energy:             22.3134864

- temperature:       990.0000000
  free_energy:       -52.2532853
  entropy:            75.5493225
  heat_capacity:      22.7060697
  energy:             22.5405440

- temperature:      1000.0000000
  free_energy:       -53.0099215
  entropy:            75.7775292
  heat_capacity:      22.7066870
  energy:             22.7676078
