phonopy:
  version: "2.37.1"
  frequency_unit_conversion_factor: 15.633302
  symmetry_tolerance: 1.00000e-05

space_group:
  type: "P4/nmm"
  number: 129
  Hall_symbol: "P 4ab 2ab -1ab"

primitive_matrix:
- [  1.000000000000000,  0.000000000000000, -0.000000000000000 ]
- [  0.000000000000000,  1.000000000000000, -0.000000000000000 ]
- [  0.000000000000000,  0.000000000000000,  1.000000000000000 ]

supercell_matrix:
- [   3,   0,   0 ]
- [   0,   3,   0 ]
- [   0,   0,   2 ]

primitive_cell:
  lattice:
  - [     3.877580275948462,     0.000000000000000,     0.000000000000000 ] # a
  - [     0.000000020062264,     3.877580114368104,     0.000000000000000 ] # b
  - [    -0.000000126710362,    -0.000000047315616,     5.872931287253429 ] # c
  points:
  - symbol: Li # 1
    coordinates: [  0.999999991814848,  0.999999991639955,  0.994058323889087 ]
    mass: 6.940000
  - symbol: Li # 2
    coordinates: [  0.499999992726527,  0.499999987870712,  0.255941669757879 ]
    mass: 6.940000
  - symbol: Sn # 3
    coordinates: [  0.000000017336506,  0.000000022063857,  0.487822505957837 ]
    mass: 118.710000
  - symbol: Sn # 4
    coordinates: [  0.499999998401421,  0.499999998455382,  0.762177500382744 ]
    mass: 118.710000
  reciprocal_lattice: # without 2pi
  - [     0.257892791079715,    -0.000000001334315,     0.000000005564119 ] # a*
  - [     0.000000000000000,     0.257892801826214,     0.000000002077729 ] # b*
  - [     0.000000000000000,     0.000000000000000,     0.170272722613049 ] # c*

unit_cell:
  lattice:
  - [     3.877580275948462,     0.000000000000000,     0.000000000000000 ] # a
  - [     0.000000020062264,     3.877580114368104,     0.000000000000000 ] # b
  - [    -0.000000126710362,    -0.000000047315616,     5.872931287253429 ] # c
  points:
  - symbol: Li # 1
    coordinates: [  0.999999991814848,  0.999999991639955,  0.994058323889087 ]
    mass: 6.940000
    reduced_to: 1
  - symbol: Li # 2
    coordinates: [  0.499999992726527,  0.499999987870712,  0.255941669757879 ]
    mass: 6.940000
    reduced_to: 2
  - symbol: Sn # 3
    coordinates: [  0.000000017336506,  0.000000022063857,  0.487822505957837 ]
    mass: 118.710000
    reduced_to: 3
  - symbol: Sn # 4
    coordinates: [  0.499999998401421,  0.499999998455382,  0.762177500382744 ]
    mass: 118.710000
    reduced_to: 4

supercell:
  lattice:
  - [    11.632740827845387,     0.000000000000000,     0.000000000000000 ] # a
  - [     0.000000060186793,    11.632740343104313,     0.000000000000000 ] # b
  - [    -0.000000253420724,    -0.000000094631233,    11.745862574506857 ] # c
  points:
  - symbol: Li # 1
    coordinates: [  0.333333330604949,  0.333333330546652,  0.497029161944543 ]
    mass: 6.940000
    reduced_to: 1
  - symbol: Li # 2
    coordinates: [  0.666666663938283,  0.333333330546652,  0.497029161944543 ]
    mass: 6.940000
    reduced_to: 1
  - symbol: Li # 3
    coordinates: [  0.999999997271616,  0.333333330546652,  0.497029161944543 ]
    mass: 6.940000
    reduced_to: 1
  - symbol: Li # 4
    coordinates: [  0.333333330604949,  0.666666663879985,  0.497029161944543 ]
    mass: 6.940000
    reduced_to: 1
  - symbol: Li # 5
    coordinates: [  0.666666663938283,  0.666666663879985,  0.497029161944543 ]
    mass: 6.940000
    reduced_to: 1
  - symbol: Li # 6
    coordinates: [  0.999999997271616,  0.666666663879985,  0.497029161944543 ]
    mass: 6.940000
    reduced_to: 1
  - symbol: Li # 7
    coordinates: [  0.333333330604949,  0.999999997213318,  0.497029161944543 ]
    mass: 6.940000
    reduced_to: 1
  - symbol: Li # 8
    coordinates: [  0.666666663938283,  0.999999997213318,  0.497029161944543 ]
    mass: 6.940000
    reduced_to: 1
  - symbol: Li # 9
    coordinates: [  0.999999997271616,  0.999999997213318,  0.497029161944543 ]
    mass: 6.940000
    reduced_to: 1
  - symbol: Li # 10
    coordinates: [  0.333333330604949,  0.333333330546652,  0.997029161944543 ]
    mass: 6.940000
    reduced_to: 1
  - symbol: Li # 11
    coordinates: [  0.666666663938283,  0.333333330546652,  0.997029161944543 ]
    mass: 6.940000
    reduced_to: 1
  - symbol: Li # 12
    coordinates: [  0.999999997271616,  0.333333330546652,  0.997029161944543 ]
    mass: 6.940000
    reduced_to: 1
  - symbol: Li # 13
    coordinates: [  0.333333330604949,  0.666666663879985,  0.997029161944543 ]
    mass: 6.940000
    reduced_to: 1
  - symbol: Li # 14
    coordinates: [  0.666666663938283,  0.666666663879985,  0.997029161944543 ]
    mass: 6.940000
    reduced_to: 1
  - symbol: Li # 15
    coordinates: [  0.999999997271616,  0.666666663879985,  0.997029161944543 ]
    mass: 6.940000
    reduced_to: 1
  - symbol: Li # 16
    coordinates: [  0.333333330604949,  0.999999997213318,  0.997029161944543 ]
    mass: 6.940000
    reduced_to: 1
  - symbol: Li # 17
    coordinates: [  0.666666663938283,  0.999999997213318,  0.997029161944543 ]
    mass: 6.940000
    reduced_to: 1
  - symbol: Li # 18
    coordinates: [  0.999999997271616,  0.999999997213318,  0.997029161944543 ]
    mass: 6.940000
    reduced_to: 1
  - symbol: Li # 19
    coordinates: [  0.166666664242176,  0.166666662623571,  0.127970834878939 ]
    mass: 6.940000
    reduced_to: 19
  - symbol: Li # 20
    coordinates: [  0.499999997575509,  0.166666662623571,  0.127970834878939 ]
    mass: 6.940000
    reduced_to: 19
  - symbol: Li # 21
    coordinates: [  0.833333330908842,  0.166666662623571,  0.127970834878939 ]
    mass: 6.940000
    reduced_to: 19
  - symbol: Li # 22
    coordinates: [  0.166666664242176,  0.499999995956904,  0.127970834878939 ]
    mass: 6.940000
    reduced_to: 19
  - symbol: Li # 23
    coordinates: [  0.499999997575509,  0.499999995956904,  0.127970834878939 ]
    mass: 6.940000
    reduced_to: 19
  - symbol: Li # 24
    coordinates: [  0.833333330908842,  0.499999995956904,  0.127970834878939 ]
    mass: 6.940000
    reduced_to: 19
  - symbol: Li # 25
    coordinates: [  0.166666664242176,  0.833333329290237,  0.127970834878939 ]
    mass: 6.940000
    reduced_to: 19
  - symbol: Li # 26
    coordinates: [  0.499999997575509,  0.833333329290237,  0.127970834878939 ]
    mass: 6.940000
    reduced_to: 19
  - symbol: Li # 27
    coordinates: [  0.833333330908842,  0.833333329290237,  0.127970834878939 ]
    mass: 6.940000
    reduced_to: 19
  - symbol: Li # 28
    coordinates: [  0.166666664242176,  0.166666662623571,  0.627970834878939 ]
    mass: 6.940000
    reduced_to: 19
  - symbol: Li # 29
    coordinates: [  0.499999997575509,  0.166666662623571,  0.627970834878939 ]
    mass: 6.940000
    reduced_to: 19
  - symbol: Li # 30
    coordinates: [  0.833333330908842,  0.166666662623571,  0.627970834878939 ]
    mass: 6.940000
    reduced_to: 19
  - symbol: Li # 31
    coordinates: [  0.166666664242176,  0.499999995956904,  0.627970834878939 ]
    mass: 6.940000
    reduced_to: 19
  - symbol: Li # 32
    coordinates: [  0.499999997575509,  0.499999995956904,  0.627970834878939 ]
    mass: 6.940000
    reduced_to: 19
  - symbol: Li # 33
    coordinates: [  0.833333330908842,  0.499999995956904,  0.627970834878939 ]
    mass: 6.940000
    reduced_to: 19
  - symbol: Li # 34
    coordinates: [  0.166666664242176,  0.833333329290237,  0.627970834878939 ]
    mass: 6.940000
    reduced_to: 19
  - symbol: Li # 35
    coordinates: [  0.499999997575509,  0.833333329290237,  0.627970834878939 ]
    mass: 6.940000
    reduced_to: 19
  - symbol: Li # 36
    coordinates: [  0.833333330908842,  0.833333329290237,  0.627970834878939 ]
    mass: 6.940000
    reduced_to: 19
  - symbol: Sn # 37
    coordinates: [  0.000000005778835,  0.000000007354619,  0.243911252978919 ]
    mass: 118.710000
    reduced_to: 37
  - symbol: Sn # 38
    coordinates: [  0.333333339112169,  0.000000007354619,  0.243911252978919 ]
    mass: 118.710000
    reduced_to: 37
  - symbol: Sn # 39
    coordinates: [  0.666666672445502,  0.000000007354619,  0.243911252978919 ]
    mass: 118.710000
    reduced_to: 37
  - symbol: Sn # 40
    coordinates: [  0.000000005778835,  0.333333340687952,  0.243911252978919 ]
    mass: 118.710000
    reduced_to: 37
  - symbol: Sn # 41
    coordinates: [  0.333333339112169,  0.333333340687952,  0.243911252978919 ]
    mass: 118.710000
    reduced_to: 37
  - symbol: Sn # 42
    coordinates: [  0.666666672445502,  0.333333340687952,  0.243911252978919 ]
    mass: 118.710000
    reduced_to: 37
  - symbol: Sn # 43
    coordinates: [  0.000000005778835,  0.666666674021286,  0.243911252978919 ]
    mass: 118.710000
    reduced_to: 37
  - symbol: Sn # 44
    coordinates: [  0.333333339112169,  0.666666674021286,  0.243911252978919 ]
    mass: 118.710000
    reduced_to: 37
  - symbol: Sn # 45
    coordinates: [  0.666666672445502,  0.666666674021286,  0.243911252978919 ]
    mass: 118.710000
    reduced_to: 37
  - symbol: Sn # 46
    coordinates: [  0.000000005778835,  0.000000007354619,  0.743911252978919 ]
    mass: 118.710000
    reduced_to: 37
  - symbol: Sn # 47
    coordinates: [  0.333333339112169,  0.000000007354619,  0.743911252978919 ]
    mass: 118.710000
    reduced_to: 37
  - symbol: Sn # 48
    coordinates: [  0.666666672445502,  0.000000007354619,  0.743911252978919 ]
    mass: 118.710000
    reduced_to: 37
  - symbol: Sn # 49
    coordinates: [  0.000000005778835,  0.333333340687952,  0.743911252978919 ]
    mass: 118.710000
    reduced_to: 37
  - symbol: Sn # 50
    coordinates: [  0.333333339112169,  0.333333340687952,  0.743911252978919 ]
    mass: 118.710000
    reduced_to: 37
  - symbol: Sn # 51
    coordinates: [  0.666666672445502,  0.333333340687952,  0.743911252978919 ]
    mass: 118.710000
    reduced_to: 37
  - symbol: Sn # 52
    coordinates: [  0.000000005778835,  0.666666674021286,  0.743911252978919 ]
    mass: 118.710000
    reduced_to: 37
  - symbol: Sn # 53
    coordinates: [  0.333333339112169,  0.666666674021286,  0.743911252978919 ]
    mass: 118.710000
    reduced_to: 37
  - symbol: Sn # 54
    coordinates: [  0.666666672445502,  0.666666674021286,  0.743911252978919 ]
    mass: 118.710000
    reduced_to: 37
  - symbol: Sn # 55
    coordinates: [  0.166666666133807,  0.166666666151794,  0.381088750191372 ]
    mass: 118.710000
    reduced_to: 55
  - symbol: Sn # 56
    coordinates: [  0.499999999467140,  0.166666666151794,  0.381088750191372 ]
    mass: 118.710000
    reduced_to: 55
  - symbol: Sn # 57
    coordinates: [  0.833333332800474,  0.166666666151794,  0.381088750191372 ]
    mass: 118.710000
    reduced_to: 55
  - symbol: Sn # 58
    coordinates: [  0.166666666133807,  0.499999999485127,  0.381088750191372 ]
    mass: 118.710000
    reduced_to: 55
  - symbol: Sn # 59
    coordinates: [  0.499999999467140,  0.499999999485127,  0.381088750191372 ]
    mass: 118.710000
    reduced_to: 55
  - symbol: Sn # 60
    coordinates: [  0.833333332800474,  0.499999999485127,  0.381088750191372 ]
    mass: 118.710000
    reduced_to: 55
  - symbol: Sn # 61
    coordinates: [  0.166666666133807,  0.833333332818461,  0.381088750191372 ]
    mass: 118.710000
    reduced_to: 55
  - symbol: Sn # 62
    coordinates: [  0.499999999467140,  0.833333332818461,  0.381088750191372 ]
    mass: 118.710000
    reduced_to: 55
  - symbol: Sn # 63
    coordinates: [  0.833333332800474,  0.833333332818461,  0.381088750191372 ]
    mass: 118.710000
    reduced_to: 55
  - symbol: Sn # 64
    coordinates: [  0.166666666133807,  0.166666666151794,  0.881088750191372 ]
    mass: 118.710000
    reduced_to: 55
  - symbol: Sn # 65
    coordinates: [  0.499999999467140,  0.166666666151794,  0.881088750191372 ]
    mass: 118.710000
    reduced_to: 55
  - symbol: Sn # 66
    coordinates: [  0.833333332800474,  0.166666666151794,  0.881088750191372 ]
    mass: 118.710000
    reduced_to: 55
  - symbol: Sn # 67
    coordinates: [  0.166666666133807,  0.499999999485127,  0.881088750191372 ]
    mass: 118.710000
    reduced_to: 55
  - symbol: Sn # 68
    coordinates: [  0.499999999467140,  0.499999999485127,  0.881088750191372 ]
    mass: 118.710000
    reduced_to: 55
  - symbol: Sn # 69
    coordinates: [  0.833333332800474,  0.499999999485127,  0.881088750191372 ]
    mass: 118.710000
    reduced_to: 55
  - symbol: Sn # 70
    coordinates: [  0.166666666133807,  0.833333332818461,  0.881088750191372 ]
    mass: 118.710000
    reduced_to: 55
  - symbol: Sn # 71
    coordinates: [  0.499999999467140,  0.833333332818461,  0.881088750191372 ]
    mass: 118.710000
    reduced_to: 55
  - symbol: Sn # 72
    coordinates: [  0.833333332800474,  0.833333332818461,  0.881088750191372 ]
    mass: 118.710000
    reduced_to: 55

displacements:
- atom:    1
  displacement:
    [   0.0070367706747845, -0.0000000000572435,  0.0071051993969552 ]
  forces:
  - [  -0.0080477073788643,  0.0000002658925951, -0.0504360646009445 ]
  - [  -0.0005293113645166, -0.0000001754124526, -0.0284760184586048 ]
  - [  -0.0007021111669019,  0.0000000418136636, -0.0283247306942940 ]
  - [   0.0002131303772330,  0.0000778241083026, -0.0283986106514931 ]
  - [   0.0001997223589569,  0.0002665916108526, -0.0288371443748474 ]
  - [   0.0005491332849488, -0.0006165516097099, -0.0291806161403656 ]
  - [   0.0002129669301212, -0.0000775703229010, -0.0284003168344498 ]
  - [   0.0001991711324081, -0.0002660174504854, -0.0288379937410355 ]
  - [   0.0005495382938534,  0.0006174212321639, -0.0291823893785477 ]
  - [   0.0002029484603554,  0.0000000628642738, -0.0304399840533733 ]
  - [  -0.0001071738079190, -0.0000000203517487, -0.0287552922964096 ]
  - [   0.0000643748790026,  0.0000003801166883, -0.0289278291165829 ]
  - [   0.0000255061313510, -0.0000861023872858, -0.0288397744297981 ]
  - [   0.0000911327078938,  0.0000948253364186, -0.0287092253565788 ]
  - [  -0.0001164516434073,  0.0001121647583204, -0.0285040140151978 ]
  - [   0.0000251596793532,  0.0000863003806444, -0.0288410410284996 ]
  - [   0.0000912602990866, -0.0000945944848354, -0.0287103950977325 ]
  - [  -0.0001161517575383, -0.0001122933826991, -0.0285053104162216 ]
  - [   0.0000062148537836, -0.0000411506807723,  0.0289024822413921 ]
  - [  -0.0001079414287233,  0.0001538746291772,  0.0287943445146084 ]
  - [   0.0000719703384675, -0.0000482716750412,  0.0287516377866268 ]
  - [   0.0000060718557506,  0.0000413852249039,  0.0289020799100399 ]
  - [  -0.0001082700910047, -0.0001535311021144,  0.0287939831614494 ]
  - [   0.0000724510755390,  0.0000488788609800,  0.0287509374320507 ]
  - [  -0.0001876343158074, -0.0000006462327065,  0.0287046059966087 ]
  - [  -0.0000916293938644, -0.0000004221801646,  0.0287980847060680 ]
  - [   0.0002793447347358, -0.0000008291681297,  0.0288516730070114 ]
  - [  -0.0003136929008178, -0.0002919713151641,  0.0289105139672756 ]
  - [   0.0011475970968604, -0.0011724117211998,  0.0303653590381145 ]
  - [   0.0000420050055254,  0.0000394363232772,  0.0287591777741909 ]
  - [  -0.0003135594597552,  0.0002922524581663,  0.0289093032479286 ]
  - [   0.0011463778791949,  0.0011730939149857,  0.0303646698594093 ]
  - [   0.0000422439770773, -0.0000386809770134,  0.0287587530910969 ]
  - [   0.0000215502223000, -0.0000006738097795,  0.0287978127598763 ]
  - [  -0.0000569022122363, -0.0000009656650946,  0.0287217944860458 ]
  - [   0.0000354325165972, -0.0000007737544365,  0.0287687107920647 ]
  - [  -0.0004918929189444, -0.0004736876871902, -0.0224094726145267 ]
  - [   0.0002163015305996, -0.0000897534191608, -0.0223134085536003 ]
  - [  -0.0001169331371784,  0.0000970415203483, -0.0221869982779026 ]
  - [   0.0000481773204228, -0.0000004806497600, -0.0220881029963493 ]
  - [  -0.0000635646283627, -0.0000001154839993, -0.0159300044178963 ]
  - [   0.0002443634439260, -0.0000005572558734, -0.0225503556430340 ]
  - [  -0.0004939802456647,  0.0004737089038827, -0.0224107541143894 ]
  - [   0.0002166714984924,  0.0000902060419321, -0.0223148800432682 ]
  - [  -0.0001157581282314, -0.0000967726882664, -0.0221883021295071 ]
  - [  -0.0000410526990891, -0.0000239592045546, -0.0223928466439247 ]
  - [   0.0000513177365065, -0.0003341957926750, -0.0222165212035179 ]
  - [  -0.0001708734780550,  0.0001555648486828, -0.0223699919879436 ]
  - [  -0.0002410160377622, -0.0000002533197403, -0.0223734937608242 ]
  - [   0.0005896072834730,  0.0000001322478056, -0.0130310133099556 ]
  - [   0.0004481782380026, -0.0000012804769085, -0.0220459103584290 ]
  - [  -0.0000401229881390,  0.0000242553651333, -0.0223929136991501 ]
  - [   0.0000511778343935,  0.0003348048776388, -0.0222165212035179 ]
  - [  -0.0001720083819237, -0.0001541677047499, -0.0223699398338795 ]
  - [   0.0026432010345161,  0.0032437322661281,  0.0242619179189205 ]
  - [  -0.0003642212832347, -0.0002514780499041,  0.0218757167458534 ]
  - [   0.0003459168074187, -0.0001971544697881,  0.0222618989646435 ]
  - [   0.0026427924167365, -0.0032444423995912,  0.0242613479495049 ]
  - [  -0.0003646361583378,  0.0002508906763978,  0.0218750722706318 ]
  - [   0.0003461963206064,  0.0001956745982170,  0.0222617760300636 ]
  - [  -0.0003512070397846,  0.0000007715113384,  0.0221745632588863 ]
  - [   0.0000451152045571,  0.0000007150621855,  0.0223468281328678 ]
  - [   0.0003051236271858,  0.0000009985328688,  0.0221550017595291 ]
  - [   0.0002024394634645,  0.0002116753312293,  0.0223298966884613 ]
  - [  -0.0000586213827773,  0.0000460439478047,  0.0225192494690418 ]
  - [   0.0000245246010309,  0.0000403737649322,  0.0222619622945786 ]
  - [   0.0002023393899435, -0.0002129981876351,  0.0223303362727165 ]
  - [  -0.0000588561015320, -0.0000467672944069,  0.0225189737975597 ]
  - [   0.0000243644299189, -0.0000411625951529,  0.0222616791725159 ]
  - [   0.0000445286859758,  0.0000007478382713,  0.0222337394952774 ]
  - [  -0.0000392012298107,  0.0000002898410685,  0.0222894996404648 ]
  - [  -0.0000051651149988,  0.0000004696073006,  0.0222828760743141 ]
- atom:    1
  displacement:
    [  -0.0070367706747845,  0.0000000000572435, -0.0071051993969552 ]
  forces:
  - [   0.0081581082195044,  0.0000004081521183, -0.0071473568677902 ]
  - [   0.0005526120075956, -0.0000000503791995, -0.0290227010846138 ]
  - [   0.0006956546567380,  0.0000003223840963, -0.0291841961443424 ]
  - [  -0.0002189364749938, -0.0000800772104412, -0.0291013494133949 ]
  - [  -0.0002010394819081, -0.0002688668610062, -0.0286632329225540 ]
  - [  -0.0005517358658835,  0.0006193385925144, -0.0283125862479210 ]
  - [  -0.0002191471867263,  0.0000804532319307, -0.0291031301021576 ]
  - [  -0.0002010322641581,  0.0002693385758903, -0.0286637395620346 ]
  - [  -0.0005516915116459, -0.0006188593106344, -0.0283142775297165 ]
  - [  -0.0002017172519118,  0.0000000563450158, -0.0270410887897015 ]
  - [   0.0001075901091099,  0.0000001733640431, -0.0287414193153381 ]
  - [  -0.0000655781477690,  0.0000001044481763, -0.0285723581910133 ]
  - [  -0.0000245459377766,  0.0000863254244905, -0.0286551676690578 ]
  - [  -0.0000910572707653, -0.0000955536379479, -0.0287843942642212 ]
  - [   0.0001155985519290, -0.0001123696565628, -0.0289897248148918 ]
  - [  -0.0000248802825809, -0.0000863767854753, -0.0286561995744705 ]
  - [  -0.0000912770628929,  0.0000957584124990, -0.0287856981158257 ]
  - [   0.0001161387190223,  0.0001127271825681, -0.0289912521839142 ]
  - [  -0.0000035253251554,  0.0000408067789976,  0.0285938903689384 ]
  - [   0.0001071666629286, -0.0001530770095997,  0.0287083089351654 ]
  - [  -0.0000717956572771,  0.0000470671584480,  0.0287509150803089 ]
  - [  -0.0000035382290662, -0.0000405795653933,  0.0285932607948780 ]
  - [   0.0001068497076631,  0.0001537577481940,  0.0287077873945236 ]
  - [  -0.0000713831977919, -0.0000461684103357,  0.0287503004074097 ]
  - [   0.0001868348917924, -0.0000003468719001,  0.0287987403571606 ]
  - [   0.0000927804430830, -0.0000007008784451,  0.0287029556930065 ]
  - [  -0.0002793042222038, -0.0000011408119462,  0.0286505743861198 ]
  - [   0.0003222913073841,  0.0003013187670149,  0.0285919383168221 ]
  - [  -0.0011264388449490,  0.0011433820473030,  0.0271650739014149 ]
  - [  -0.0000414595415350, -0.0000374363335141,  0.0287439227104187 ]
  - [   0.0003223543171771, -0.0003009933861904,  0.0285906791687012 ]
  - [  -0.0011272827396169, -0.0011428078869358,  0.0271645002067089 ]
  - [  -0.0000413326197304,  0.0000382541948056,  0.0287435092031956 ]
  - [  -0.0000199265778065, -0.0000006614770882,  0.0287063643336296 ]
  - [   0.0000551521334273, -0.0000005620531738,  0.0287827365100384 ]
  - [  -0.0000349570764229, -0.0000010022486094,  0.0287356302142143 ]
  - [   0.0005191313102841,  0.0004997901851311, -0.0221801958978176 ]
  - [  -0.0002150516957045,  0.0000844048336148, -0.0222953781485558 ]
  - [   0.0001127663999796, -0.0000951335168793, -0.0224132798612118 ]
  - [  -0.0000950358808041, -0.0000008374045137, -0.0225524045526981 ]
  - [   0.0000858362764120, -0.0000004507601261, -0.0288326665759087 ]
  - [  -0.0002438221417833, -0.0000007431869449, -0.0220525413751602 ]
  - [   0.0005172046949156, -0.0004990426823497, -0.0221816487610340 ]
  - [  -0.0002141940349247, -0.0000831447541714, -0.0222971737384796 ]
  - [   0.0001143628905993,  0.0000960959368967, -0.0224145129323006 ]
  - [   0.0000396082177758,  0.0000251531600952, -0.0222104638814926 ]
  - [  -0.0000497754663229,  0.0003247205168009, -0.0223785117268562 ]
  - [   0.0001678410917521, -0.0001524131948827, -0.0222318731248379 ]
  - [   0.0002416344359517, -0.0000004917383194, -0.0222308039665222 ]
  - [  -0.0006228862330317,  0.0000005103647709, -0.0313748940825462 ]
  - [  -0.0003900798910763, -0.0000009108898098, -0.0225131958723068 ]
  - [   0.0000402195582865, -0.0000248607248068, -0.0222107172012329 ]
  - [  -0.0000500118476339, -0.0003247484564781, -0.0223779901862144 ]
  - [   0.0001665359595791,  0.0001533675094834, -0.0222320407629013 ]
  - [  -0.0027291793376207, -0.0033664866350591,  0.0202926769852638 ]
  - [   0.0003436775878072,  0.0002769692218862,  0.0227416232228279 ]
  - [  -0.0003515704302117,  0.0002019237726927,  0.0223394073545933 ]
  - [  -0.0027294876053929,  0.0033647986128926,  0.0202929563820362 ]
  - [   0.0003435620747041, -0.0002779187052511,  0.0227423198521137 ]
  - [  -0.0003522344632074, -0.0002038106322289,  0.0223392173647881 ]
  - [   0.0003568030078895,  0.0000006908967407,  0.0224247872829437 ]
  - [  -0.0000451783816970,  0.0000005895095114,  0.0222511254251003 ]
  - [  -0.0003118179738522,  0.0000009631376088,  0.0224441364407539 ]
  - [  -0.0001990811142605, -0.0002104245795636,  0.0222658477723598 ]
  - [   0.0000584087574680, -0.0000506357755512,  0.0220845341682434 ]
  - [  -0.0000213739313040, -0.0000418834388256,  0.0223370529711246 ]
  - [  -0.0001988144358620,  0.0002098158292938,  0.0222659222781658 ]
  - [   0.0000584152512602,  0.0000499216839671,  0.0220840461552143 ]
  - [  -0.0000216812768485,  0.0000407248735428,  0.0223365798592567 ]
  - [  -0.0000433083041571,  0.0000009061484434,  0.0223640128970146 ]
  - [   0.0000369548797607, -0.0000000128237900,  0.0223080106079578 ]
  - [   0.0000060740858316,  0.0000006074353678,  0.0223148092627525 ]
- atom:   37
  displacement:
    [   0.0070367706747845, -0.0000000000572435,  0.0071051993969552 ]
  forces:
  - [  -0.0004298577550799, -0.0004100180231035, -0.0289444476366043 ]
  - [  -0.0001954199979082,  0.0001772528339643, -0.0285562276840210 ]
  - [   0.0002180285518989,  0.0002437098883092, -0.0287571288645267 ]
  - [  -0.0004296095576137,  0.0004109684377909, -0.0289431437849998 ]
  - [  -0.0001948734279722, -0.0001768684014678, -0.0285554900765419 ]
  - [   0.0002176824491471, -0.0002431166212773, -0.0287559479475021 ]
  - [   0.0004158881492913,  0.0000000318977982, -0.0288320258259773 ]
  - [  -0.0000833939993754,  0.0000003784743967, -0.0286727957427502 ]
  - [  -0.0000817582476884,  0.0000004083885869, -0.0222083702683449 ]
  - [  -0.0001161005347967, -0.0001003695651889, -0.0287651196122169 ]
  - [  -0.0000921124592423,  0.0000775032749516, -0.0288911014795303 ]
  - [   0.0000504478812218, -0.0001490851573180, -0.0286706387996674 ]
  - [  -0.0001160558313131,  0.0001004922742140, -0.0287637971341610 ]
  - [  -0.0000919830054045, -0.0000770598271629, -0.0288901478052139 ]
  - [   0.0000502653419971,  0.0001497185876360, -0.0286690033972263 ]
  - [  -0.0000658230856061,  0.0000000087044469, -0.0289966985583305 ]
  - [   0.0002133036032319,  0.0000000483118896, -0.0283644422888756 ]
  - [   0.0006314320489764, -0.0000002832225618, -0.0196912623941898 ]
  - [  -0.0000718263909221,  0.0005447027506307,  0.0280349478125572 ]
  - [   0.0003492990508676,  0.0000895222183317,  0.0287121422588825 ]
  - [   0.0023396406322718, -0.0029367976821959,  0.0310036987066269 ]
  - [  -0.0000684063634253,  0.0000000771075008,  0.0289111956954002 ]
  - [   0.0003103702911176,  0.0000004415990134,  0.0286057069897652 ]
  - [  -0.0002422361285426,  0.0000004376836387,  0.0285129174590111 ]
  - [  -0.0000725958379917, -0.0005449217860587,  0.0280349403619766 ]
  - [   0.0003493923577480, -0.0000897676218301,  0.0287113003432751 ]
  - [   0.0023399731144309,  0.0029360854532570,  0.0310029760003090 ]
  - [   0.0001640738482820,  0.0001748693175614,  0.0287470817565918 ]
  - [   0.0000246627823799,  0.0000283645058516,  0.0287158600986004 ]
  - [  -0.0000198784691747,  0.0000091069223345,  0.0290050320327282 ]
  - [   0.0000317702069879,  0.0000002756070216,  0.0286740548908710 ]
  - [  -0.0000061785899561,  0.0000003715832406,  0.0287361778318882 ]
  - [  -0.0000248602300417,  0.0000006257150744,  0.0287547297775745 ]
  - [   0.0001643075229367, -0.0001756177516654,  0.0287460535764694 ]
  - [   0.0000234105518757, -0.0000292197801173,  0.0287153124809265 ]
  - [  -0.0000197563203983, -0.0000096363655757,  0.0290051028132439 ]
  - [  -0.0104091241955757,  0.0000009299546946, -0.0503577739000320 ]
  - [   0.0012993980199099,  0.0000007245689631, -0.0229379609227180 ]
  - [  -0.0000786017626524,  0.0000006975162705, -0.0215466544032097 ]
  - [  -0.0006294725462794,  0.0007053606677800, -0.0222386904060841 ]
  - [  -0.0002760123461485, -0.0000983010977507, -0.0220787599682808 ]
  - [   0.0000209943682421, -0.0001978894142667, -0.0223689973354340 ]
  - [  -0.0006296548526734, -0.0007065078243613, -0.0222392901778221 ]
  - [  -0.0002759546332527,  0.0000983588397503, -0.0220791883766651 ]
  - [   0.0000209485879168,  0.0001974880724447, -0.0223697721958160 ]
  - [   0.0000587012618780,  0.0000005457550287, -0.0233511477708817 ]
  - [   0.0000096950680017,  0.0000004265457392, -0.0223354771733284 ]
  - [  -0.0000899992883205,  0.0000010990837609, -0.0222380347549915 ]
  - [   0.0000507785007358,  0.0000491719692945, -0.0222866758704185 ]
  - [   0.0000079479068518,  0.0000186096876860, -0.0223666802048683 ]
  - [  -0.0000601623323746,  0.0000470595587103, -0.0223001874983311 ]
  - [   0.0000503767041664, -0.0000497959554195, -0.0222874805331230 ]
  - [   0.0000083269842435, -0.0000188061967492, -0.0223665386438370 ]
  - [  -0.0000600735947955, -0.0000482478753838, -0.0223005302250385 ]
  - [   0.0040083206258714,  0.0055132154375315,  0.0276624448597431 ]
  - [   0.0006298917578533, -0.0002543323789723,  0.0221201963722706 ]
  - [  -0.0019683144055307,  0.0004928596317768,  0.0217383131384850 ]
  - [  -0.0002387875138083, -0.0000010972252085,  0.0218652039766312 ]
  - [  -0.0000365655250789, -0.0000016023986973,  0.0223804041743279 ]
  - [   0.0002752654254436, -0.0000011865049601,  0.0223728753626347 ]
  - [   0.0040074903517962, -0.0055120298638940,  0.0276620425283909 ]
  - [   0.0006293319747783,  0.0002548187912907,  0.0221201293170452 ]
  - [  -0.0019688606262207, -0.0004932791343890,  0.0217383876442909 ]
  - [  -0.0000442391028628,  0.0000121769808175,  0.0224924236536026 ]
  - [   0.0000393471345888, -0.0000273347250186,  0.0222906991839409 ]
  - [   0.0000916344943107, -0.0001463564112782,  0.0226242989301682 ]
  - [  -0.0000292908480333, -0.0000012646473806,  0.0222631432116032 ]
  - [   0.0000028957260838, -0.0000009872019291,  0.0222902335226536 ]
  - [   0.0000267926279776, -0.0000009480863810,  0.0223202332854271 ]
  - [  -0.0000448269420303, -0.0000109720094770,  0.0224923528730869 ]
  - [   0.0000391956418753,  0.0000280517633655,  0.0222907848656178 ]
  - [   0.0000914148986340,  0.0001466961839469,  0.0226242467761040 ]
- atom:   37
  displacement:
    [  -0.0070367706747845,  0.0000000000572435, -0.0071051993969552 ]
  forces:
  - [   0.0004204432480037,  0.0004023220390081, -0.0285567604005337 ]
  - [   0.0001953459577635, -0.0001759933948051, -0.0289418846368790 ]
  - [  -0.0002132226945832, -0.0002402858081041, -0.0287391394376755 ]
  - [   0.0004206893499941, -0.0004014819860458, -0.0285554043948650 ]
  - [   0.0001953289611265,  0.0001759149454301, -0.0289411023259163 ]
  - [  -0.0002129734493792,  0.0002407830324955, -0.0287377461791039 ]
  - [  -0.0003847221378237,  0.0000000414438546, -0.0286436788737774 ]
  - [   0.0000864703906700,  0.0000007101417623, -0.0288270153105259 ]
  - [   0.0000677868956700,  0.0000002011670119, -0.0351113229990005 ]
  - [   0.0001154313795269,  0.0001002612989396, -0.0287328623235226 ]
  - [   0.0000954018905759, -0.0000782517672633, -0.0286027789115906 ]
  - [  -0.0000504860654473,  0.0001581900141900, -0.0288322716951370 ]
  - [   0.0001155938953161, -0.0000999388357741, -0.0287313871085644 ]
  - [   0.0000954270362854,  0.0000785480660852, -0.0286016613245010 ]
  - [  -0.0000506788492203, -0.0001578620431246, -0.0288309529423714 ]
  - [   0.0000647036358714,  0.0000000217397940, -0.0285056233406067 ]
  - [  -0.0002727396786213,  0.0000000669398190, -0.0291806161403656 ]
  - [  -0.0005816938355565, -0.0000001789179578, -0.0380343012511730 ]
  - [   0.0000360535050277, -0.0005835994379595,  0.0294951871037483 ]
  - [  -0.0003482298052404, -0.0000851923250593,  0.0287893675267696 ]
  - [  -0.0024343603290617,  0.0030741519294679,  0.0264416933059692 ]
  - [   0.0000657156124362,  0.0000006179769798,  0.0285928919911385 ]