# Thermal properties / unit cell (natom)

unit:
  temperature:   K
  free_energy:   kJ/mol
  entropy:       J/K/mol
  heat_capacity: J/K/mol

natom: 4    
cutoff_frequency: 0.00000
num_modes: 137904
num_integrated_modes: 132205

zero_point_energy:      11.1832604

thermal_properties:
- temperature:         0.0000000
  free_energy:        11.1832604
  entropy:             0.0000000
  heat_capacity:       0.0000000
  energy:             11.1832604

- temperature:        10.0000000
  free_energy:        11.1766495
  entropy:             2.0916741
  heat_capacity:       4.7008954
  energy:             11.1975662

- temperature:        20.0000000
  free_energy:        11.1245271
  entropy:             8.9107321
  heat_capacity:      16.3801916
  energy:             11.3027418

- temperature:        30.0000000
  free_energy:        10.9930476
  entropy:            17.4512823
  heat_capacity:      25.8737851
  energy:             11.5165860

- temperature:        40.0000000
  free_energy:        10.7759390
  entropy:            25.9041058
  heat_capacity:      32.9483953
  energy:             11.8121032

- temperature:        50.0000000
  free_energy:        10.4764996
  entropy:            33.9065117
  heat_capacity:      38.8758463
  energy:             12.1718252

- temperature:        60.0000000
  free_energy:        10.0992511
  entropy:            41.4768789
  heat_capacity:      44.2616670
  energy:             12.5878638

- temperature:        70.0000000
  free_energy:         9.6481851
  entropy:            48.6795543
  heat_capacity:      49.2520484
  energy:             13.0557539

- temperature:        80.0000000
  free_energy:         9.1267296
  entropy:            55.5607230
  heat_capacity:      53.8469707
  energy:             13.5715875

- temperature:        90.0000000
  free_energy:         8.5379475
  entropy:            62.1485028
  heat_capacity:      58.0283344
  energy:             14.1313128

- temperature:       100.0000000
  free_energy:         7.8846771
  entropy:            68.4608653
  heat_capacity:      61.7931566
  energy:             14.7307637

- temperature:       110.0000000
  free_energy:         7.1696035
  entropy:            74.5111864
  heat_capacity:      65.1558189
  energy:             15.3658340

- temperature:       120.0000000
  free_energy:         6.3952879
  entropy:            80.3111620
  heat_capacity:      68.1428714
  energy:             16.0326273

- temperature:       130.0000000
  free_energy:         5.5641771
  entropy:            85.8720961
  heat_capacity:      70.7874371
  energy:             16.7275496

- temperature:       140.0000000
  free_energy:         4.6786049
  entropy:            91.2053406
  heat_capacity:      73.1249482
  energy:             17.4473526

- temperature:       150.0000000
  free_energy:         3.7407911
  entropy:            96.3223377
  heat_capacity:      75.1903451
  energy:             18.1891417

- temperature:       160.0000000
  free_energy:         2.7528409
  entropy:           101.2345079
  heat_capacity:      77.0164430
  energy:             18.9503622

- temperature:       170.0000000
  free_energy:         1.7167462
  entropy:           105.9530983
  heat_capacity:      78.6331167
  energy:             19.7287729

- temperature:       180.0000000
  free_energy:         0.6343877
  entropy:           110.4890439
  heat_capacity:      80.0670129
  energy:             20.5224156

- temperature:       190.0000000
  free_energy:        -0.4924610
  entropy:           114.8528599
  heat_capacity:      81.3415781
  energy:             21.3295824

- temperature:       200.0000000
  free_energy:        -1.6621292
  entropy:           119.0545686
  heat_capacity:      82.4772590
  energy:             22.1487845

- temperature:       210.0000000
  free_energy:        -2.8730437
  entropy:           123.1036556
  heat_capacity:      83.4917856
  energy:             22.9787240

- temperature:       220.0000000
  free_energy:        -4.1237234
  entropy:           127.0090504
  heat_capacity:      84.4004792
  energy:             23.8182677

- temperature:       230.0000000
  free_energy:        -5.4127737
  entropy:           130.7791249
  heat_capacity:      85.2165570
  energy:             24.6664250

- temperature:       240.0000000
  free_energy:        -6.7388810
  entropy:           134.4217052
  heat_capacity:      85.9514150
  energy:             25.5223283

- temperature:       250.0000000
  free_energy:        -8.1008072
  entropy:           137.9440909
  heat_capacity:      86.6148825
  energy:             26.3852155

- temperature:       260.0000000
  free_energy:        -9.4973849
  entropy:           141.3530816
  heat_capacity:      87.2154457
  energy:             27.2544164

- temperature:       270.0000000
  free_energy:       -10.9275120
  entropy:           144.6550049
  heat_capacity:      87.7604426
  energy:             28.1293393

- temperature:       280.0000000
  free_energy:       -12.3901477
  entropy:           147.8557464
  heat_capacity:      88.2562291
  energy:             29.0094613

- temperature:       290.0000000
  free_energy:       -13.8843079
  entropy:           150.9607803
  heat_capacity:      88.7083225
  energy:             29.8943183

- temperature:       300.0000000
  free_energy:       -15.4090613
  entropy:           153.9751982
  heat_capacity:      89.1215224
  energy:             30.7834981

- temperature:       310.0000000
  free_energy:       -16.9635257
  entropy:           156.9037382
  heat_capacity:      89.5000139
  energy:             31.6766332

- temperature:       320.0000000
  free_energy:       -18.5468646
  entropy:           159.7508111
  heat_capacity:      89.8474553
  energy:             32.5733950

- temperature:       330.0000000
  free_energy:       -20.1582841
  entropy:           162.5205259
  heat_capacity:      90.1670518
  energy:             33.4734895

- temperature:       340.0000000
  free_energy:       -21.7970300
  entropy:           165.2167136
  heat_capacity:      90.4616190
  energy:             34.3766526

- temperature:       350.0000000
  free_energy:       -23.4623852
  entropy:           167.8429484
  heat_capacity:      90.7336357
  energy:             35.2826467

- temperature:       360.0000000
  free_energy:       -25.1536670
  entropy:           170.4025679
  heat_capacity:      90.9852901
  energy:             36.1912575

- temperature:       370.0000000
  free_energy:       -26.8702249
  entropy:           172.8986921
  heat_capacity:      91.2185181
  energy:             37.1022911

- temperature:       380.0000000
  free_energy:       -28.6114389
  entropy:           175.3342397
  heat_capacity:      91.4350365
  energy:             38.0155722

- temperature:       390.0000000
  free_energy:       -30.3767169
  entropy:           177.7119441
  heat_capacity:      91.6363714
  energy:             38.9309413

- temperature:       400.0000000
  free_energy:       -32.1654935
  entropy:           180.0343677
  heat_capacity:      91.8238821
  energy:             39.8482535

- temperature:       410.0000000
  free_energy:       -33.9772280
  entropy:           182.3039145
  heat_capacity:      91.9987826
  energy:             40.7673769

- temperature:       420.0000000
  free_energy:       -35.8114031
  entropy:           184.5228426
  heat_capacity:      92.1621588
  energy:             41.6881908

- temperature:       430.0000000
  free_energy:       -37.6675233
  entropy:           186.6932748
  heat_capacity:      92.3149843
  energy:             42.6105849

- temperature:       440.0000000
  free_energy:       -39.5451136
  entropy:           188.8172087
  heat_capacity:      92.4581341
  energy:             43.5344582

- temperature:       450.0000000
  free_energy:       -41.4437187
  entropy:           190.8965260
  heat_capacity:      92.5923954
  energy:             44.4597180

- temperature:       460.0000000
  free_energy:       -43.3629013
  entropy:           192.9330005
  heat_capacity:      92.7184785
  energy:             45.3862789

- temperature:       470.0000000
  free_energy:       -45.3022415
  entropy:           194.9283063
  heat_capacity:      92.8370252
  energy:             46.3140624

- temperature:       480.0000000
  free_energy:       -47.2613355
  entropy:           196.8840244
  heat_capacity:      92.9486163
  energy:             47.2429962

- temperature:       490.0000000
  free_energy:       -49.2397950
  entropy:           198.8016497
  heat_capacity:      93.0537785
  energy:             48.1730133

- temperature:       500.0000000
  free_energy:       -51.2372463
  entropy:           200.6825964
  heat_capacity:      93.1529904
  energy:             49.1040519

- temperature:       510.0000000
  free_energy:       -53.2533292
  entropy:           202.5282038
  heat_capacity:      93.2466873
  energy:             50.0360548

- temperature:       520.0000000
  free_energy:       -55.2876968
  entropy:           204.3397412
  heat_capacity:      93.3352658
  energy:             50.9689686

- temperature:       530.0000000
  free_energy:       -57.3400144
  entropy:           206.1184126
  heat_capacity:      93.4190880
  energy:             51.9027442

- temperature:       540.0000000
  free_energy:       -59.4099593
  entropy:           207.8653610
  heat_capacity:      93.4984849
  energy:             52.8373356

- temperature:       550.0000000
  free_energy:       -61.4972195
  entropy:           209.5816722
  heat_capacity:      93.5737594
  energy:             53.7727002

- temperature:       560.0000000
  free_energy:       -63.6014941
  entropy:           211.2683787
  heat_capacity:      93.6451894
  energy:             54.7087980

- temperature:       570.0000000
  free_energy:       -65.7224917
  entropy:           212.9264627
  heat_capacity:      93.7130298
  energy:             55.6455920

- temperature:       580.0000000
  free_energy:       -67.8599310
  entropy:           214.5568594
  heat_capacity:      93.7775150
  energy:             56.5830474

- temperature:       590.0000000
  free_energy:       -70.0135396
  entropy:           216.1604601
  heat_capacity:      93.8388606
  energy:             57.5211318

- temperature:       600.0000000
  free_energy:       -72.1830537
  entropy:           217.7381143
  heat_capacity:      93.8972656
  energy:             58.4598148

- temperature:       610.0000000
  free_energy:       -74.3682181
  entropy:           219.2906329
  heat_capacity:      93.9529133
  energy:             59.3990680

- temperature:       620.0000000
  free_energy:       -76.5687852
  entropy:           220.8187898
  heat_capacity:      94.0059734
  energy:             60.3388645

- temperature:       630.0000000
  free_energy:       -78.7845152
  entropy:           222.3233246
  heat_capacity:      94.0566025
  energy:             61.2791793

- temperature:       640.0000000
  free_energy:       -81.0151753
  entropy:           223.8049441
  heat_capacity:      94.1049458
  energy:             62.2199889

- temperature:       650.0000000
  free_energy:       -83.2605399
  entropy:           225.2643246
  heat_capacity:      94.1511379
  energy:             63.1612711

- temperature:       660.0000000
  free_energy:       -85.5203898
  entropy:           226.7021133
  heat_capacity:      94.1953036
  energy:             64.1030049

- temperature:       670.0000000
  free_energy:       -87.7945123
  entropy:           228.1189299
  heat_capacity:      94.2375590
  energy:             65.0451708

- temperature:       680.0000000
  free_energy:       -90.0827005
  entropy:           229.5153685
  heat_capacity:      94.2780120
  energy:             65.9877501

- temperature:       690.0000000
  free_energy:       -92.3847536
  entropy:           230.8919985
  heat_capacity:      94.3167630
  energy:             66.9307254

- temperature:       700.0000000
  free_energy:       -94.7004763
  entropy:           232.2493661
  heat_capacity:      94.3539055
  energy:             67.8740800

- temperature:       710.0000000
  free_energy:       -97.0296785
  entropy:           233.5879956
  heat_capacity:      94.3895269
  energy:             68.8177984

- temperature:       720.0000000
  free_energy:       -99.3721754
  entropy:           234.9083905
  heat_capacity:      94.4237085
  energy:             69.7618657

- temperature:       730.0000000
  free_energy:      -101.7277871
  entropy:           236.2110344
  heat_capacity:      94.4565265
  energy:             70.7062680

- temperature:       740.0000000
  free_energy:      -104.0963385
  entropy:           237.4963925
  heat_capacity:      94.4880521
  energy:             71.6509920

- temperature:       750.0000000
  free_energy:      -106.4776588
  entropy:           238.7649118
  heat_capacity:      94.5183519
  energy:             72.5960250

- temperature:       760.0000000
  free_energy:      -108.8715820
  entropy:           240.0170225
  heat_capacity:      94.5474884
  energy:             73.5413551

- temperature:       770.0000000
  free_energy:      -111.2779460
  entropy:           241.2531390
  heat_capacity:      94.5755199
  energy:             74.4869711

- temperature:       780.0000000
  free_energy:      -113.6965928
  entropy:           242.4736600
  heat_capacity:      94.6025014
  energy:             75.4328620

- temperature:       790.0000000
  free_energy:      -116.1273685
  entropy:           243.6789699
  heat_capacity:      94.6284844
  energy:             76.3790178

- temperature:       800.0000000
  free_energy:      -118.5701227
  entropy:           244.8694391
  heat_capacity:      94.6535174
  energy:             77.3254285

- temperature:       810.0000000
  free_energy:      -121.0247090
  entropy:           246.0454248
  heat_capacity:      94.6776459
  energy:             78.2720851

- temperature:       820.0000000
  free_energy:      -123.4909841
  entropy:           247.2072716
  heat_capacity:      94.7009128
  energy:             79.2189786

- temperature:       830.0000000
  free_energy:      -125.9688084
  entropy:           248.3553121
  heat_capacity:      94.7233585
  energy:             80.1661006

- temperature:       840.0000000
  free_energy:      -128.4580454
  entropy:           249.4898673
  heat_capacity:      94.7450209
  energy:             81.1134431

- temperature:       850.0000000
  free_energy:      -130.9585618
  entropy:           250.6112475
  heat_capacity:      94.7659359
  energy:             82.0609985

- temperature:       860.0000000
  free_energy:      -133.4702274
  entropy:           251.7197522
  heat_capacity:      94.7861374
  energy:             83.0087595

- temperature:       870.0000000
  free_energy:      -135.9929149
  entropy:           252.8156712
  heat_capacity:      94.8056574
  energy:             83.9567190

- temperature:       880.0000000
  free_energy:      -138.5264998
  entropy:           253.8992844
  heat_capacity:      94.8245260
  energy:             84.9048705

- temperature:       890.0000000
  free_energy:      -141.0708605
  entropy:           254.9708629
  heat_capacity:      94.8427719
  energy:             85.8532075

- temperature:       900.0000000
  free_energy:      -143.6258779
  entropy:           256.0306686
  heat_capacity:      94.8604219
  energy:             86.8017239

- temperature:       910.0000000
  free_energy:      -146.1914355
  entropy:           257.0789555
  heat_capacity:      94.8775017
  energy:             87.7504140

- temperature:       920.0000000
  free_energy:      -148.7674194
  entropy:           258.1159690
  heat_capacity:      94.8940355
  energy:             88.6992721

- temperature:       930.0000000
  free_energy:      -151.3537181
  entropy:           259.1419473
  heat_capacity:      94.9100462
  energy:             89.6482930

- temperature:       940.0000000
  free_energy:      -153.9502223
  entropy:           260.1571210
  heat_capacity:      94.9255556
  energy:             90.5974714

- temperature:       950.0000000
  free_energy:      -156.5568252
  entropy:           261.1617134
  heat_capacity:      94.9405844
  energy:             91.5468025

- temperature:       960.0000000
  free_energy:      -159.1734220
  entropy:           262.1559412
  heat_capacity:      94.9551521
  energy:             92.4962815

- temperature:       970.0000000
  free_energy:      -161.7999102
  entropy:           263.1400147
  heat_capacity:      94.9692773
  energy:             93.4459040

- temperature:       980.0000000
  free_energy:      -164.4361892
  entropy:           264.1141376
  heat_capacity:      94.9829777
  energy:             94.3956657

- temperature:       990.0000000
  free_energy:      -167.0821604
  entropy:           265.0785078
  heat_capacity:      94.9962702
  energy:             95.3455622

- temperature:      1000.0000000
  free_energy:      -169.7377275
  entropy:           266.0333172
  heat_capacity:      95.0091707
  energy:             96.2955898
