phonopy:
  version: "2.37.1"
  frequency_unit_conversion_factor: 15.633302
  symmetry_tolerance: 1.00000e-05

space_group:
  type: "P1"
  number: 1
  Hall_symbol: "P 1"

primitive_matrix:
- [ -1.000000000000000,  0.000000000000000, -0.000000000000000 ]
- [  0.000000000000000,  1.000000000000000, -0.000000000000000 ]
- [  0.000000000000000,  0.000000000000000, -1.000000000000000 ]

supercell_matrix:
- [   3,   0,   0 ]
- [   0,   3,   0 ]
- [   0,   0,   1 ]

primitive_cell:
  lattice:
  - [    -4.403453479275710,     0.000000000000000,     0.000000000000000 ] # a
  - [    -0.000076415366212,     4.424641285435893,     0.000000000000000 ] # b
  - [    -0.000159928886566,     0.002184687695527,   -12.276077949695852 ] # c
  points:
  - symbol: Li # 1
    coordinates: [  0.817360388763307,  0.253103795233981,  0.428262922038185 ]
    mass: 6.940000
  - symbol: Li # 2
    coordinates: [  0.817266359221086,  0.753229181026861,  0.251180442331331 ]
    mass: 6.940000
  - symbol: Li # 3
    coordinates: [  0.317230975062145,  0.753795580366684,  0.778364646168765 ]
    mass: 6.940000
  - symbol: Li # 4
    coordinates: [  0.317429917537574,  0.253657554844349,  0.939006955325798 ]
    mass: 6.940000
  - symbol: Li # 5
    coordinates: [  0.817279900074436,  0.253354004627368,  0.767666908168013 ]
    mass: 6.940000
  - symbol: Li # 6
    coordinates: [  0.317340143964808,  0.753572135046110,  0.088026014507866 ]
    mass: 6.940000
  - symbol: Ga # 7
    coordinates: [  0.817321290059126,  0.253207281643359,  0.088719666446563 ]
    mass: 69.723000
  - symbol: Ga # 8
    coordinates: [  0.317297082586252,  0.753430949168934,  0.412355488894101 ]
    mass: 69.723000
  - symbol: Sn # 9
    coordinates: [  0.817219223838324,  0.753225869773475,  0.589924700251881 ]
    mass: 118.710000
  - symbol: Sn # 10
    coordinates: [  0.817357957127072,  0.753397178826538,  0.941698675690435 ]
    mass: 118.710000
  - symbol: Sn # 11
    coordinates: [  0.317370429282978,  0.253500775504653,  0.605751098229836 ]
    mass: 118.710000
  - symbol: Sn # 12
    coordinates: [  0.317290594802040,  0.253365395796271,  0.244173278471277 ]
    mass: 118.710000
  reciprocal_lattice: # without 2pi
  - [    -0.227094484977841,    -0.000003922014716,     0.000002957817627 ] # a*
  - [    -0.000000000000000,     0.226007021923244,     0.000040220888294 ] # b*
  - [    -0.000000000000000,     0.000000000000000,    -0.081459241632200 ] # c*

unit_cell:
  lattice:
  - [     4.403453479275709,     0.000000000000000,     0.000000000000000 ] # a
  - [    -0.000076415366212,     4.424641285435893,     0.000000000000000 ] # b
  - [     0.000159928886566,    -0.002184687695527,    12.276077949695855 ] # c
  points:
  - symbol: Li # 1
    coordinates: [  0.182639611236693,  0.253103795233981,  0.571737077961815 ]
    mass: 6.940000
    reduced_to: 1
  - symbol: Li # 2
    coordinates: [  0.182733640778914,  0.753229181026861,  0.748819557668669 ]
    mass: 6.940000
    reduced_to: 2
  - symbol: Li # 3
    coordinates: [  0.682769024937855,  0.753795580366684,  0.221635353831235 ]
    mass: 6.940000
    reduced_to: 3
  - symbol: Li # 4
    coordinates: [  0.682570082462426,  0.253657554844349,  0.060993044674202 ]
    mass: 6.940000
    reduced_to: 4
  - symbol: Li # 5
    coordinates: [  0.182720099925564,  0.253354004627368,  0.232333091831987 ]
    mass: 6.940000
    reduced_to: 5
  - symbol: Li # 6
    coordinates: [  0.682659856035193,  0.753572135046110,  0.911973985492134 ]
    mass: 6.940000
    reduced_to: 6
  - symbol: Ga # 7
    coordinates: [  0.182678709940874,  0.253207281643359,  0.911280333553436 ]
    mass: 69.723000
    reduced_to: 7
  - symbol: Ga # 8
    coordinates: [  0.682702917413748,  0.753430949168934,  0.587644511105899 ]
    mass: 69.723000
    reduced_to: 8
  - symbol: Sn # 9
    coordinates: [  0.182780776161676,  0.753225869773475,  0.410075299748119 ]
    mass: 118.710000
    reduced_to: 9
  - symbol: Sn # 10
    coordinates: [  0.182642042872928,  0.753397178826539,  0.058301324309565 ]
    mass: 118.710000
    reduced_to: 10
  - symbol: Sn # 11
    coordinates: [  0.682629570717022,  0.253500775504653,  0.394248901770164 ]
    mass: 118.710000
    reduced_to: 11
  - symbol: Sn # 12
    coordinates: [  0.682709405197960,  0.253365395796271,  0.755826721528723 ]
    mass: 118.710000
    reduced_to: 12

supercell:
  lattice:
  - [    13.210360437827127,     0.000000000000000,     0.000000000000000 ] # a
  - [    -0.000229246098636,    13.273923856307679,     0.000000000000000 ] # b
  - [     0.000159928886566,    -0.002184687695527,    12.276077949695855 ] # c
  points:
  - symbol: Li # 1
    coordinates: [  0.060879870412231,  0.084367931744660,  0.571737077961815 ]
    mass: 6.940000
    reduced_to: 1
  - symbol: Li # 2
    coordinates: [  0.394213203745564,  0.084367931744660,  0.571737077961815 ]
    mass: 6.940000
    reduced_to: 1
  - symbol: Li # 3
    coordinates: [  0.727546537078898,  0.084367931744660,  0.571737077961815 ]
    mass: 6.940000
    reduced_to: 1
  - symbol: Li # 4
    coordinates: [  0.060879870412231,  0.417701265077994,  0.571737077961815 ]
    mass: 6.940000
    reduced_to: 1
  - symbol: Li # 5
    coordinates: [  0.394213203745564,  0.417701265077994,  0.571737077961815 ]
    mass: 6.940000
    reduced_to: 1
  - symbol: Li # 6
    coordinates: [  0.727546537078898,  0.417701265077994,  0.571737077961815 ]
    mass: 6.940000
    reduced_to: 1
  - symbol: Li # 7
    coordinates: [  0.060879870412231,  0.751034598411327,  0.571737077961815 ]
    mass: 6.940000
    reduced_to: 1
  - symbol: Li # 8
    coordinates: [  0.394213203745564,  0.751034598411327,  0.571737077961815 ]
    mass: 6.940000
    reduced_to: 1
  - symbol: Li # 9
    coordinates: [  0.727546537078898,  0.751034598411327,  0.571737077961815 ]
    mass: 6.940000
    reduced_to: 1
  - symbol: Li # 10
    coordinates: [  0.060911213592971,  0.251076393675620,  0.748819557668669 ]
    mass: 6.940000
    reduced_to: 10
  - symbol: Li # 11
    coordinates: [  0.394244546926305,  0.251076393675620,  0.748819557668669 ]
    mass: 6.940000
    reduced_to: 10
  - symbol: Li # 12
    coordinates: [  0.727577880259638,  0.251076393675620,  0.748819557668669 ]
    mass: 6.940000
    reduced_to: 10
  - symbol: Li # 13
    coordinates: [  0.060911213592971,  0.584409727008954,  0.748819557668669 ]
    mass: 6.940000
    reduced_to: 10
  - symbol: Li # 14
    coordinates: [  0.394244546926305,  0.584409727008954,  0.748819557668669 ]
    mass: 6.940000
    reduced_to: 10
  - symbol: Li # 15
    coordinates: [  0.727577880259638,  0.584409727008954,  0.748819557668669 ]
    mass: 6.940000
    reduced_to: 10
  - symbol: Li # 16
    coordinates: [  0.060911213592971,  0.917743060342287,  0.748819557668669 ]
    mass: 6.940000
    reduced_to: 10
  - symbol: Li # 17
    coordinates: [  0.394244546926305,  0.917743060342287,  0.748819557668669 ]
    mass: 6.940000
    reduced_to: 10
  - symbol: Li # 18
    coordinates: [  0.727577880259638,  0.917743060342287,  0.748819557668669 ]
    mass: 6.940000
    reduced_to: 10
  - symbol: Li # 19
    coordinates: [  0.227589674979285,  0.251265193455561,  0.221635353831235 ]
    mass: 6.940000
    reduced_to: 19
  - symbol: Li # 20
    coordinates: [  0.560923008312618,  0.251265193455561,  0.221635353831235 ]
    mass: 6.940000
    reduced_to: 19
  - symbol: Li # 21
    coordinates: [  0.894256341645952,  0.251265193455561,  0.221635353831235 ]
    mass: 6.940000
    reduced_to: 19
  - symbol: Li # 22
    coordinates: [  0.227589674979285,  0.584598526788895,  0.221635353831235 ]
    mass: 6.940000
    reduced_to: 19
  - symbol: Li # 23
    coordinates: [  0.560923008312618,  0.584598526788895,  0.221635353831235 ]
    mass: 6.940000
    reduced_to: 19
  - symbol: Li # 24
    coordinates: [  0.894256341645952,  0.584598526788895,  0.221635353831235 ]
    mass: 6.940000
    reduced_to: 19
  - symbol: Li # 25
    coordinates: [  0.227589674979285,  0.917931860122228,  0.221635353831235 ]
    mass: 6.940000
    reduced_to: 19
  - symbol: Li # 26
    coordinates: [  0.560923008312618,  0.917931860122228,  0.221635353831235 ]
    mass: 6.940000
    reduced_to: 19
  - symbol: Li # 27
    coordinates: [  0.894256341645952,  0.917931860122228,  0.221635353831235 ]
    mass: 6.940000
    reduced_to: 19
  - symbol: Li # 28
    coordinates: [  0.227523360820809,  0.084552518281450,  0.060993044674202 ]
    mass: 6.940000
    reduced_to: 28
  - symbol: Li # 29
    coordinates: [  0.560856694154142,  0.084552518281450,  0.060993044674202 ]
    mass: 6.940000
    reduced_to: 28
  - symbol: Li # 30
    coordinates: [  0.894190027487475,  0.084552518281450,  0.060993044674202 ]
    mass: 6.940000
    reduced_to: 28
  - symbol: Li # 31
    coordinates: [  0.227523360820809,  0.417885851614783,  0.060993044674202 ]
    mass: 6.940000
    reduced_to: 28
  - symbol: Li # 32
    coordinates: [  0.560856694154142,  0.417885851614783,  0.060993044674202 ]
    mass: 6.940000
    reduced_to: 28
  - symbol: Li # 33
    coordinates: [  0.894190027487475,  0.417885851614783,  0.060993044674202 ]
    mass: 6.940000
    reduced_to: 28
  - symbol: Li # 34
    coordinates: [  0.227523360820809,  0.751219184948116,  0.060993044674202 ]
    mass: 6.940000
    reduced_to: 28
  - symbol: Li # 35
    coordinates: [  0.560856694154142,  0.751219184948116,  0.060993044674202 ]
    mass: 6.940000
    reduced_to: 28
  - symbol: Li # 36
    coordinates: [  0.894190027487475,  0.751219184948116,  0.060993044674202 ]
    mass: 6.940000
    reduced_to: 28
  - symbol: Li # 37
    coordinates: [  0.060906699975188,  0.084451334875789,  0.232333091831987 ]
    mass: 6.940000
    reduced_to: 37
  - symbol: Li # 38
    coordinates: [  0.394240033308521,  0.084451334875789,  0.232333091831987 ]
    mass: 6.940000
    reduced_to: 37
  - symbol: Li # 39
    coordinates: [  0.727573366641855,  0.084451334875789,  0.232333091831987 ]
    mass: 6.940000
    reduced_to: 37
  - symbol: Li # 40
    coordinates: [  0.060906699975188,  0.417784668209123,  0.232333091831987 ]
    mass: 6.940000
    reduced_to: 37
  - symbol: Li # 41
    coordinates: [  0.394240033308521,  0.417784668209123,  0.232333091831987 ]
    mass: 6.940000
    reduced_to: 37
  - symbol: Li # 42
    coordinates: [  0.727573366641855,  0.417784668209123,  0.232333091831987 ]
    mass: 6.940000
    reduced_to: 37
  - symbol: Li # 43
    coordinates: [  0.060906699975188,  0.751118001542456,  0.232333091831987 ]
    mass: 6.940000
    reduced_to: 37
  - symbol: Li # 44
    coordinates: [  0.394240033308521,  0.751118001542456,  0.232333091831987 ]
    mass: 6.940000
    reduced_to: 37
  - symbol: Li # 45
    coordinates: [  0.727573366641855,  0.751118001542456,  0.232333091831987 ]
    mass: 6.940000
    reduced_to: 37
  - symbol: Li # 46
    coordinates: [  0.227553285345064,  0.251190711682036,  0.911973985492134 ]
    mass: 6.940000
    reduced_to: 46
  - symbol: Li # 47
    coordinates: [  0.560886618678398,  0.251190711682036,  0.911973985492134 ]
    mass: 6.940000
    reduced_to: 46
  - symbol: Li # 48
    coordinates: [  0.894219952011731,  0.251190711682036,  0.911973985492134 ]
    mass: 6.940000
    reduced_to: 46
  - symbol: Li # 49
    coordinates: [  0.227553285345064,  0.584524045015370,  0.911973985492134 ]
    mass: 6.940000
    reduced_to: 46
  - symbol: Li # 50
    coordinates: [  0.560886618678398,  0.584524045015370,  0.911973985492134 ]
    mass: 6.940000
    reduced_to: 46
  - symbol: Li # 51
    coordinates: [  0.894219952011731,  0.584524045015370,  0.911973985492134 ]
    mass: 6.940000
    reduced_to: 46
  - symbol: Li # 52
    coordinates: [  0.227553285345064,  0.917857378348703,  0.911973985492134 ]
    mass: 6.940000
    reduced_to: 46
  - symbol: Li # 53
    coordinates: [  0.560886618678398,  0.917857378348703,  0.911973985492134 ]
    mass: 6.940000
    reduced_to: 46
  - symbol: Li # 54
    coordinates: [  0.894219952011731,  0.917857378348703,  0.911973985492134 ]
    mass: 6.940000
    reduced_to: 46
  - symbol: Ga # 55
    coordinates: [  0.060892903313625,  0.084402427214453,  0.911280333553436 ]
    mass: 69.723000
    reduced_to: 55
  - symbol: Ga # 56
    coordinates: [  0.394226236646958,  0.084402427214453,  0.911280333553436 ]
    mass: 69.723000
    reduced_to: 55
  - symbol: Ga # 57
    coordinates: [  0.727559569980291,  0.084402427214453,  0.911280333553436 ]
    mass: 69.723000
    reduced_to: 55
  - symbol: Ga # 58
    coordinates: [  0.060892903313625,  0.417735760547786,  0.911280333553436 ]
    mass: 69.723000
    reduced_to: 55
  - symbol: Ga # 59
    coordinates: [  0.394226236646958,  0.417735760547786,  0.911280333553436 ]
    mass: 69.723000
    reduced_to: 55
  - symbol: Ga # 60
    coordinates: [  0.727559569980291,  0.417735760547786,  0.911280333553436 ]
    mass: 69.723000
    reduced_to: 55
  - symbol: Ga # 61
    coordinates: [  0.060892903313625,  0.751069093881120,  0.911280333553436 ]
    mass: 69.723000
    reduced_to: 55
  - symbol: Ga # 62
    coordinates: [  0.394226236646958,  0.751069093881120,  0.911280333553436 ]
    mass: 69.723000
    reduced_to: 55
  - symbol: Ga # 63
    coordinates: [  0.727559569980291,  0.751069093881120,  0.911280333553436 ]
    mass: 69.723000
    reduced_to: 55
  - symbol: Ga # 64
    coordinates: [  0.227567639137916,  0.251143649722978,  0.587644511105899 ]
    mass: 69.723000
    reduced_to: 64
  - symbol: Ga # 65
    coordinates: [  0.560900972471249,  0.251143649722978,  0.587644511105899 ]
    mass: 69.723000
    reduced_to: 64
  - symbol: Ga # 66
    coordinates: [  0.894234305804583,  0.251143649722978,  0.587644511105899 ]
    mass: 69.723000
    reduced_to: 64
  - symbol: Ga # 67
    coordinates: [  0.227567639137916,  0.584476983056311,  0.587644511105899 ]
    mass: 69.723000
    reduced_to: 64
  - symbol: Ga # 68
    coordinates: [  0.560900972471249,  0.584476983056311,  0.587644511105899 ]
    mass: 69.723000
    reduced_to: 64
  - symbol: Ga # 69
    coordinates: [  0.894234305804583,  0.584476983056311,  0.587644511105899 ]
    mass: 69.723000
    reduced_to: 64
  - symbol: Ga # 70
    coordinates: [  0.227567639137916,  0.917810316389645,  0.587644511105899 ]
    mass: 69.723000
    reduced_to: 64
  - symbol: Ga # 71
    coordinates: [  0.560900972471249,  0.917810316389645,  0.587644511105899 ]
    mass: 69.723000
    reduced_to: 64
  - symbol: Ga # 72
    coordinates: [  0.894234305804583,  0.917810316389645,  0.587644511105899 ]
    mass: 69.723000
    reduced_to: 64
  - symbol: Sn # 73
    coordinates: [  0.060926925387225,  0.251075289924492,  0.410075299748119 ]
    mass: 118.710000
    reduced_to: 73
  - symbol: Sn # 74
    coordinates: [  0.394260258720559,  0.251075289924492,  0.410075299748119 ]
    mass: 118.710000
    reduced_to: 73
  - symbol: Sn # 75
    coordinates: [  0.727593592053892,  0.251075289924492,  0.410075299748119 ]
    mass: 118.710000
    reduced_to: 73
  - symbol: Sn # 76
    coordinates: [  0.060926925387225,  0.584408623257825,  0.410075299748119 ]
    mass: 118.710000
    reduced_to: 73
  - symbol: Sn # 77
    coordinates: [  0.394260258720559,  0.584408623257825,  0.410075299748119 ]
    mass: 118.710000
    reduced_to: 73
  - symbol: Sn # 78
    coordinates: [  0.727593592053892,  0.584408623257825,  0.410075299748119 ]
    mass: 118.710000
    reduced_to: 73
  - symbol: Sn # 79
    coordinates: [  0.060926925387225,  0.917741956591158,  0.410075299748119 ]
    mass: 118.710000
    reduced_to: 73
  - symbol: Sn # 80
    coordinates: [  0.394260258720559,  0.917741956591158,  0.410075299748119 ]
    mass: 118.710000
    reduced_to: 73
  - symbol: Sn # 81
    coordinates: [  0.727593592053892,  0.917741956591158,  0.410075299748119 ]
    mass: 118.710000
    reduced_to: 73
  - symbol: Sn # 82
    coordinates: [  0.060880680957643,  0.251132392942179,  0.058301324309565 ]
    mass: 118.710000
    reduced_to: 82
  - symbol: Sn # 83
    coordinates: [  0.394214014290976,  0.251132392942179,  0.058301324309565 ]
    mass: 118.710000
    reduced_to: 82
  - symbol: Sn # 84
    coordinates: [  0.727547347624309,  0.251132392942179,  0.058301324309565 ]
    mass: 118.710000
    reduced_to: 82
  - symbol: Sn # 85
    coordinates: [  0.060880680957643,  0.584465726275513,  0.058301324309565 ]
    mass: 118.710000
    reduced_to: 82
  - symbol: Sn # 86
    coordinates: [  0.394214014290976,  0.584465726275513,  0.058301324309565 ]
    mass: 118.710000
    reduced_to: 82
  - symbol: Sn # 87
    coordinates: [  0.727547347624309,  0.584465726275513,  0.058301324309565 ]
    mass: 118.710000
    reduced_to: 82
  - symbol: Sn # 88
    coordinates: [  0.060880680957643,  0.917799059608846,  0.058301324309565 ]
    mass: 118.710000
    reduced_to: 82
  - symbol: Sn # 89
    coordinates: [  0.394214014290976,  0.917799059608846,  0.058301324309565 ]
    mass: 118.710000
    reduced_to: 82
  - symbol: Sn # 90
    coordinates: [  0.727547347624309,  0.917799059608846,  0.058301324309565 ]
    mass: 118.710000
    reduced_to: 82
  - symbol: Sn # 91
    coordinates: [  0.227543190239007,  0.084500258501551,  0.394248901770164 ]
    mass: 118.710000
    reduced_to: 91
  - symbol: Sn # 92
    coordinates: [  0.560876523572341,  0.084500258501551,  0.394248901770164 ]
    mass: 118.710000
    reduced_to: 91
  - symbol: Sn # 93
    coordinates: [  0.894209856905674,  0.084500258501551,  0.394248901770164 ]
    mass: 118.710000
    reduced_to: 91
  - symbol: Sn # 94
    coordinates: [  0.227543190239007,  0.417833591834884,  0.394248901770164 ]
    mass: 118.710000
    reduced_to: 91
  - symbol: Sn # 95
    coordinates: [  0.560876523572341,  0.417833591834884,  0.394248901770164 ]
    mass: 118.710000
    reduced_to: 91
  - symbol: Sn # 96
    coordinates: [  0.894209856905674,  0.417833591834884,  0.394248901770164 ]
    mass: 118.710000
    reduced_to: 91
  - symbol: Sn # 97
    coordinates: [  0.227543190239007,  0.751166925168218,  0.394248901770164 ]
    mass: 118.710000
    reduced_to: 91
  - symbol: Sn # 98
    coordinates: [  0.560876523572341,  0.751166925168218,  0.394248901770164 ]
    mass: 118.710000
    reduced_to: 91
  - symbol: Sn # 99
    coordinates: [  0.894209856905674,  0.751166925168218,  0.394248901770164 ]
    mass: 118.710000
    reduced_to: 91
  - symbol: Sn # 100
    coordinates: [  0.227569801732653,  0.084455131932090,  0.755826721528723 ]
    mass: 118.710000
    reduced_to: 100
  - symbol: Sn # 101
    coordinates: [  0.560903135065987,  0.084455131932090,  0.755826721528723 ]
    mass: 118.710000
    reduced_to: 100
  - symbol: Sn # 102
    coordinates: [  0.894236468399320,  0.084455131932090,  0.755826721528723 ]
    mass: 118.710000
    reduced_to: 100
  - symbol: Sn # 103
    coordinates: [  0.227569801732653,  0.417788465265423,  0.755826721528723 ]
    mass: 118.710000
    reduced_to: 100
  - symbol: Sn # 104
    coordinates: [  0.560903135065987,  0.417788465265423,  0.755826721528723 ]
    mass: 118.710000
    reduced_to: 100
  - symbol: Sn # 105
    coordinates: [  0.894236468399320,  0.417788465265423,  0.755826721528723 ]
    mass: 118.710000
    reduced_to: 100
  - symbol: Sn # 106
    coordinates: [  0.227569801732653,  0.751121798598757,  0.755826721528723 ]
    mass: 118.710000
    reduced_to: 100
  - symbol: Sn # 107
    coordinates: [  0.560903135065987,  0.751121798598757,  0.755826721528723 ]
    mass: 118.710000
    reduced_to: 100
  - symbol: Sn # 108
    coordinates: [  0.894236468399320,  0.751121798598757,  0.755826721528723 ]
    mass: 118.710000
    reduced_to: 100

displacements:
- atom:    1
  displacement:
    [   0.0100000000000000,  0.0000000000000000,  0.0000000000000000 ]
  forces:
  - [  -0.0100332964211702,  0.0008285904768854,  0.1306215971708298 ]
  - [   0.0001817317679524,  0.0008292126585729,  0.1305090487003326 ]
  - [   0.0001743189059198,  0.0008288207463920,  0.1307342201471329 ]
  - [   0.0003032668028027,  0.0008293104474433,  0.1306222081184387 ]
  - [  -0.0002516303211451,  0.0005975148524158,  0.1306501626968384 ]
  - [  -0.0002502365969121,  0.0010588525328785,  0.1305928826332092 ]
  - [   0.0003036977432203,  0.0008307231473736,  0.1306207776069641 ]
  - [  -0.0002513644285500,  0.0010620364919305,  0.1306491792201996 ]
  - [  -0.0002498179674149,  0.0005994734819978,  0.1305920183658600 ]
  - [  -0.0000816129831946,  0.0000269254669547,  0.0464060306549072 ]
  - [  -0.0003697695210576,  0.0000535173603566,  0.0463385954499245 ]
  - [  -0.0003704968839884,  0.0000149775878526,  0.0464794561266899 ]
  - [  -0.0002655873831827,  0.0000334857031703,  0.0464096441864967 ]
  - [  -0.0002454435452819,  0.0000339149410138,  0.0464256294071674 ]
  - [  -0.0002462603151798,  0.0000337064993801,  0.0463945902884007 ]
  - [  -0.0000796879394329,  0.0000413628295064,  0.0464059486985207 ]
  - [  -0.0003706840798259,  0.0000147789833136,  0.0463380999863148 ]
  - [  -0.0003700740635395,  0.0000537575688213,  0.0464807823300362 ]
  - [  -0.0003769687900785, -0.0021766219288111,  0.0908251851797104 ]
  - [  -0.0004546651616693, -0.0021652979776263,  0.0907848924398422 ]
  - [  -0.0003778238897212, -0.0021555535495281,  0.0907448977231979 ]
  - [  -0.0004131625755690, -0.0021651545539498,  0.0907844454050064 ]
  - [  -0.0004042391083203, -0.0021654274314642,  0.0907847285270691 ]
  - [  -0.0004129240114707, -0.0021655531600118,  0.0907851159572601 ]
  - [  -0.0003761766129173, -0.0021538101136684,  0.0908239483833313 ]
  - [  -0.0004544593975879, -0.0021651778370142,  0.0907848030328751 ]
  - [  -0.0003761127009057, -0.0021742749959230,  0.0907471030950546 ]
  - [   0.0005940467817709, -0.0004593972989824,  0.0116721913218498 ]
  - [   0.0006812324281782, -0.0004591655451804,  0.0116867776960135 ]
  - [   0.0005944346776232, -0.0004590410680976,  0.0117007270455360 ]
  - [   0.0006280621746555, -0.0004494401218835,  0.0116898845881224 ]
  - [   0.0006183648947626, -0.0004587289877236,  0.0116853993386030 ]
  - [   0.0006277580978349, -0.0004685777239501,  0.0116814915090799 ]
  - [   0.0006277235224843, -0.0004680435522459,  0.0116894319653511 ]
  - [   0.0006185511592776, -0.0004585379792843,  0.0116851925849915 ]
  - [   0.0006280154339038, -0.0004486715770327,  0.0116811171174049 ]
  - [  -0.0007976667257026,  0.0005561638390645, -0.0817833691835403 ]
  - [  -0.0012605777010322,  0.0005566160543822, -0.0811984688043594 ]
  - [  -0.0012581143528223,  0.0005564240273088, -0.0823666602373123 ]
  - [  -0.0004974235780537,  0.0005598698626272, -0.0817859917879105 ]
  - [  -0.0005965167656541,  0.0005246198270470, -0.0817710533738136 ]
  - [  -0.0005955989472568,  0.0005897959927097, -0.0817959010601044 ]
  - [  -0.0004970659501851,  0.0005552349612117, -0.0817849412560463 ]
  - [  -0.0005962289869785,  0.0005902877310291, -0.0817706137895584 ]
  - [  -0.0005953256040812,  0.0005249502137303, -0.0817951783537865 ]
  - [   0.0000681789315422, -0.0009567700326443, -0.0395726524293423 ]
  - [   0.0000729830935597, -0.0009651854634285, -0.0395576320588589 ]
  - [   0.0000698696312611, -0.0009752088226378, -0.0395446531474590 ]
  - [   0.0000951233378146, -0.0009645838290453, -0.0395002849400043 ]
  - [   0.0000917409779504, -0.0009645214304328, -0.0395573303103447 ]
  - [   0.0000959913886618, -0.0009644525125623, -0.0396140851080418 ]
  - [   0.0000675913033774, -0.0009737461805344, -0.0395727604627609 ]
  - [   0.0000728879822418, -0.0009652231819928, -0.0395571105182171 ]
  - [   0.0000687878782628, -0.0009550456888974, -0.0395445637404919 ]
  - [   0.0003752131015062,  0.0017185909673572, -0.0803552567958832 ]
  - [   0.0001954380422831,  0.0017188375350088, -0.0801750570535660 ]
  - [   0.0001962762326002,  0.0017180372960865, -0.0805319249629974 ]
  - [  -0.0002086181193590,  0.0017190056387335, -0.0803505331277847 ]
  - [  -0.0001868773251772,  0.0017217895947397, -0.0803599059581757 ]
  - [  -0.0001870002597570,  0.0017151294741780, -0.0803415700793266 ]
  - [  -0.0002084560692310,  0.0017187686171383, -0.0803494900465012 ]
  - [  -0.0001873653382063,  0.0017156626563519, -0.0803587585687637 ]
  - [  -0.0001867190003395,  0.0017231290694326, -0.0803405046463013 ]
  - [   0.0012697277124971,  0.0006956784054637, -0.0555339232087135 ]
  - [   0.0001380755711580, -0.0009751636534929, -0.0558001995086670 ]
  - [   0.0012428369373083, -0.0026082582771778, -0.0560601204633713 ]
  - [   0.0001574523193995, -0.0009750444442034, -0.0557919889688492 ]
  - [   0.0002070507325698, -0.0009756842628121, -0.0558006167411804 ]
  - [   0.0001588925078977, -0.0009753508493304, -0.0558100044727325 ]
  - [   0.0012817222159356, -0.0026617050170898, -0.0555329173803329 ]
  - [   0.0001395038707415, -0.0009764553979039, -0.0558009147644043 ]
  - [   0.0012572815176100,  0.0006706374697387, -0.0560640096664429 ]
  - [  -0.0029708575457335,  0.0016004666686058, -0.1451639831066132 ]
  - [  -0.0007384466007352,  0.0019284810405225, -0.1450747549533844 ]
  - [  -0.0007451018318534,  0.0012883363524452, -0.1452705860137939 ]
  - [  -0.0010426439112052,  0.0016054436564445, -0.1451717615127563 ]
  - [  -0.0010479968041182,  0.0016054001171142, -0.1452019512653351 ]
  - [  -0.0010485574603081,  0.0016051135025918, -0.1451430022716522 ]
  - [  -0.0029739402234554,  0.0016135615296662, -0.1451625227928162 ]
  - [  -0.0007413867861032,  0.0012845505261794, -0.1450748443603516 ]
  - [  -0.0007473379373550,  0.0019243760034442, -0.1452689021825790 ]
  - [   0.0003090581740253, -0.0001149729359895,  0.2835556268692017 ]
  - [   0.0003630842547864, -0.0001742818276398,  0.2834844887256622 ]
  - [   0.0003643762320280, -0.0000538156309631,  0.2836264371871948 ]
  - [   0.0003449394716881, -0.0001148949377239,  0.2835558652877808 ]
  - [   0.0003479726146907, -0.0001150743046310,  0.2835634350776672 ]
  - [   0.0003452897071838, -0.0001155376085080,  0.2835478186607361 ]
  - [   0.0003104608040303, -0.0001150803291239,  0.2835562527179718 ]
  - [   0.0003649226855487, -0.0000554695725441,  0.2834847569465637 ]
  - [   0.0003633636515588, -0.0001756097481120,  0.2836262583732605 ]
  - [   0.0049322005361319, -0.0004963586688973,  0.0611172877252102 ]
  - [   0.0011783315567300, -0.0005019083037041,  0.0640081614255905 ]
  - [   0.0048812511377037, -0.0005043129203841,  0.0668262541294098 ]
  - [   0.0012739608064294, -0.0008143883896992,  0.0640477761626244 ]
  - [   0.0013711794745177, -0.0005058685783297,  0.0640086084604263 ]
  - [   0.0012769907480106, -0.0001961812668014,  0.0639679729938507 ]
  - [   0.0012737171491608, -0.0001905765966512,  0.0640487894415855 ]
  - [   0.0013712445506826, -0.0005013718036935,  0.0640083625912666 ]
  - [   0.0012745319399983, -0.0008123575244099,  0.0639679729938507 ]
  - [   0.0013012285344303,  0.0004367774818093, -0.2220785617828369 ]
  - [  -0.0004874197475147,  0.0004371043760329, -0.2244010865688324 ]
  - [   0.0012653479352593,  0.0004357083234936, -0.2266565859317780 ]
  - [  -0.0001643298455747,  0.0003100647591054, -0.2244427353143692 ]
  - [  -0.0001365777861793,  0.0004367902874947, -0.2244005501270294 ]
  - [  -0.0001640772679821,  0.0005596061237156, -0.2243605852127075 ]
  - [  -0.0001638644607738,  0.0005643523763865, -0.2244438827037811 ]
  - [  -0.0001375685096718,  0.0004366906359792, -0.2244015336036682 ]
  - [  -0.0001650548656471,  0.0003139281179756, -0.2243614494800568 ]
- atom:    1
  displacement:
    [  -0.0100000000000000,  0.0000000000000000,  0.0000000000000000 ]
  forces:
  - [   0.0100220348685980,  0.0008291489211842,  0.1306032091379166 ]
  - [  -0.0001861490309238,  0.0008290085243061,  0.1307346969842911 ]
  - [  -0.0001931623555720,  0.0008292045677081,  0.1305083632469177 ]
  - [  -0.0003155544109177,  0.0008289359975606,  0.1306222230195999 ]
  - [   0.0002382881939411,  0.0010587311116979,  0.1305932700634003 ]
  - [   0.0002396190539002,  0.0005978327244520,  0.1306495219469070 ]
  - [  -0.0003152301942464,  0.0008311367710121,  0.1306207031011581 ]
  - [   0.0002386206761003,  0.0005998814594932,  0.1305923908948898 ]
  - [   0.0002401527017355,  0.0010615719947964,  0.1306488364934921 ]
  - [  -0.0004221194249112,  0.0000260639935732,  0.0464051067829132 ]
  - [  -0.0001345584169030,  0.0000152065767907,  0.0464796610176563 ]
  - [  -0.0001353956758976,  0.0000536443985766,  0.0463383197784424 ]
  - [  -0.0002377147611696,  0.0000334959477186,  0.0464095920324326 ]
  - [  -0.0002596992999315,  0.0000336947850883,  0.0463943257927895 ]
  - [  -0.0002603353932500,  0.0000337205128744,  0.0464256405830383 ]
  - [  -0.0004248332988936,  0.0000422922894359,  0.0464049465954304 ]
  - [  -0.0001345844939351,  0.0000534311111551,  0.0464808642864227 ]
  - [  -0.0001342277973890,  0.0000147303071572,  0.0463378205895424 ]
  - [  -0.0004412404377945, -0.0021554119884968,  0.0907448679208755 ]
  - [  -0.0003664111718535, -0.0021651517599821,  0.0907851755619049 ]
  - [  -0.0004427636449691, -0.0021767932921648,  0.0908246636390686 ]
  - [  -0.0004073415184394, -0.0021657934412360,  0.0907849818468094 ]
  - [  -0.0004161671968177, -0.0021654088050127,  0.0907846167683601 ]
  - [  -0.0004068652051501, -0.0021650902926922,  0.0907847881317139 ]
  - [  -0.0004438199684955, -0.0021740393713117,  0.0907463207840919 ]
  - [  -0.0003662482486106, -0.0021650623530149,  0.0907847583293915 ]
  - [  -0.0004447256214917, -0.0021541221067309,  0.0908243060112000 ]
  - [   0.0006546686054207, -0.0004593207559083,  0.0117012988775969 ]
  - [   0.0005673338891938, -0.0004590891767293,  0.0116866752505302 ]
  - [   0.0006550168618560, -0.0004591157776304,  0.0116724297404289 ]
  - [   0.0006213856977411, -0.0004687230393756,  0.0116816610097885 ]
  - [   0.0006314979400486, -0.0004587736038957,  0.0116855949163437 ]
  - [   0.0006211333675310, -0.0004491531872191,  0.0116896275430918 ]
  - [   0.0006211177678779, -0.0004486827237997,  0.0116810500621796 ]