phonopy:
  version: "2.37.1"
  frequency_unit_conversion_factor: 15.633302
  symmetry_tolerance: 1.00000e-05

space_group:
  type: "P6/mmm"
  number: 191
  Hall_symbol: "-P 6 2"

primitive_matrix:
- [  1.000000000000000,  0.000000000000000,  0.000000000000000 ]
- [  0.000000000000000,  1.000000000000000,  0.000000000000000 ]
- [  0.000000000000000,  0.000000000000000,  1.000000000000000 ]

supercell_matrix:
- [   2,   0,   0 ]
- [   0,   2,   0 ]
- [   0,   0,   3 ]

primitive_cell:
  lattice:
  - [     5.185162642696249,     0.000000000000000,     0.000000000000000 ] # a
  - [    -2.592581194366866,     4.490482608726487,     0.000000000000000 ] # b
  - [    -0.000000087014637,     0.000000208171360,     4.952275403182691 ] # c
  points:
  - symbol: Li # 1
    coordinates: [  0.333333336488581,  0.666666667716677,  0.000000001996398 ]
    mass: 6.940000
  - symbol: Li # 2
    coordinates: [  0.666666665530655,  0.333333328798787,  0.000000001698453 ]
    mass: 6.940000
  - symbol: Li # 3
    coordinates: [  0.500000007231181,  0.000000003152754,  0.499999997924338 ]
    mass: 6.940000
  - symbol: Li # 4
    coordinates: [  0.999999995800830,  0.500000004404004,  0.499999998516907 ]
    mass: 6.940000
  - symbol: Li # 5
    coordinates: [  0.499999991247458,  0.499999992826222,  0.499999999826482 ]
    mass: 6.940000
  - symbol: Sn # 6
    coordinates: [  0.000000003638467,  0.000000003400863,  0.999999999989935 ]
    mass: 118.710000
  reciprocal_lattice: # without 2pi
  - [     0.192857981303361,     0.111346601039939,    -0.000000001291872 ] # a*
  - [     0.000000000000000,     0.222693212987101,    -0.000000009361020 ] # b*
  - [     0.000000000000000,     0.000000000000000,     0.201927380564766 ] # c*

unit_cell:
  lattice:
  - [     5.185162642696249,     0.000000000000000,     0.000000000000000 ] # a
  - [    -2.592581194366866,     4.490482608726487,     0.000000000000000 ] # b
  - [    -0.000000087014637,     0.000000208171360,     4.952275403182692 ] # c
  points:
  - symbol: Li # 1
    coordinates: [  0.333333336488581,  0.666666667716677,  0.000000001996398 ]
    mass: 6.940000
    reduced_to: 1
  - symbol: Li # 2
    coordinates: [  0.666666665530655,  0.333333328798787,  0.000000001698453 ]
    mass: 6.940000
    reduced_to: 2
  - symbol: Li # 3
    coordinates: [  0.500000007231181,  0.000000003152754,  0.499999997924338 ]
    mass: 6.940000
    reduced_to: 3
  - symbol: Li # 4
    coordinates: [  0.999999995800830,  0.500000004404004,  0.499999998516907 ]
    mass: 6.940000
    reduced_to: 4
  - symbol: Li # 5
    coordinates: [  0.499999991247458,  0.499999992826222,  0.499999999826482 ]
    mass: 6.940000
    reduced_to: 5
  - symbol: Sn # 6
    coordinates: [  0.000000003638467,  0.000000003400863,  0.999999999989935 ]
    mass: 118.710000
    reduced_to: 6

supercell:
  lattice:
  - [    10.370325285392498,     0.000000000000000,     0.000000000000000 ] # a
  - [    -5.185162388733732,     8.980965217452974,     0.000000000000000 ] # b
  - [    -0.000000261043912,     0.000000624514079,    14.856826209548075 ] # c
  points:
  - symbol: Li # 1
    coordinates: [  0.166666668244291,  0.333333333858339,  0.000000000665466 ]
    mass: 6.940000
    reduced_to: 1
  - symbol: Li # 2
    coordinates: [  0.666666668244291,  0.333333333858339,  0.000000000665466 ]
    mass: 6.940000
    reduced_to: 1
  - symbol: Li # 3
    coordinates: [  0.166666668244291,  0.833333333858339,  0.000000000665466 ]
    mass: 6.940000
    reduced_to: 1
  - symbol: Li # 4
    coordinates: [  0.666666668244291,  0.833333333858339,  0.000000000665466 ]
    mass: 6.940000
    reduced_to: 1
  - symbol: Li # 5
    coordinates: [  0.166666668244291,  0.333333333858339,  0.333333333998799 ]
    mass: 6.940000
    reduced_to: 1
  - symbol: Li # 6
    coordinates: [  0.666666668244291,  0.333333333858339,  0.333333333998799 ]
    mass: 6.940000
    reduced_to: 1
  - symbol: Li # 7
    coordinates: [  0.166666668244291,  0.833333333858339,  0.333333333998799 ]
    mass: 6.940000
    reduced_to: 1
  - symbol: Li # 8
    coordinates: [  0.666666668244291,  0.833333333858339,  0.333333333998799 ]
    mass: 6.940000
    reduced_to: 1
  - symbol: Li # 9
    coordinates: [  0.166666668244291,  0.333333333858339,  0.666666667332133 ]
    mass: 6.940000
    reduced_to: 1
  - symbol: Li # 10
    coordinates: [  0.666666668244291,  0.333333333858339,  0.666666667332133 ]
    mass: 6.940000
    reduced_to: 1
  - symbol: Li # 11
    coordinates: [  0.166666668244291,  0.833333333858339,  0.666666667332133 ]
    mass: 6.940000
    reduced_to: 1
  - symbol: Li # 12
    coordinates: [  0.666666668244291,  0.833333333858339,  0.666666667332133 ]
    mass: 6.940000
    reduced_to: 1
  - symbol: Li # 13
    coordinates: [  0.333333332765328,  0.166666664399393,  0.000000000566151 ]
    mass: 6.940000
    reduced_to: 13
  - symbol: Li # 14
    coordinates: [  0.833333332765328,  0.166666664399393,  0.000000000566151 ]
    mass: 6.940000
    reduced_to: 13
  - symbol: Li # 15
    coordinates: [  0.333333332765328,  0.666666664399393,  0.000000000566151 ]
    mass: 6.940000
    reduced_to: 13
  - symbol: Li # 16
    coordinates: [  0.833333332765328,  0.666666664399393,  0.000000000566151 ]
    mass: 6.940000
    reduced_to: 13
  - symbol: Li # 17
    coordinates: [  0.333333332765328,  0.166666664399393,  0.333333333899484 ]
    mass: 6.940000
    reduced_to: 13
  - symbol: Li # 18
    coordinates: [  0.833333332765328,  0.166666664399393,  0.333333333899484 ]
    mass: 6.940000
    reduced_to: 13
  - symbol: Li # 19
    coordinates: [  0.333333332765328,  0.666666664399393,  0.333333333899484 ]
    mass: 6.940000
    reduced_to: 13
  - symbol: Li # 20
    coordinates: [  0.833333332765328,  0.666666664399393,  0.333333333899484 ]
    mass: 6.940000
    reduced_to: 13
  - symbol: Li # 21
    coordinates: [  0.333333332765328,  0.166666664399393,  0.666666667232818 ]
    mass: 6.940000
    reduced_to: 13
  - symbol: Li # 22
    coordinates: [  0.833333332765328,  0.166666664399393,  0.666666667232818 ]
    mass: 6.940000
    reduced_to: 13
  - symbol: Li # 23
    coordinates: [  0.333333332765328,  0.666666664399393,  0.666666667232818 ]
    mass: 6.940000
    reduced_to: 13
  - symbol: Li # 24
    coordinates: [  0.833333332765328,  0.666666664399393,  0.666666667232818 ]
    mass: 6.940000
    reduced_to: 13
  - symbol: Li # 25
    coordinates: [  0.250000003615591,  0.000000001576377,  0.166666665974779 ]
    mass: 6.940000
    reduced_to: 25
  - symbol: Li # 26
    coordinates: [  0.750000003615591,  0.000000001576377,  0.166666665974779 ]
    mass: 6.940000
    reduced_to: 25
  - symbol: Li # 27
    coordinates: [  0.250000003615591,  0.500000001576377,  0.166666665974779 ]
    mass: 6.940000
    reduced_to: 25
  - symbol: Li # 28
    coordinates: [  0.750000003615591,  0.500000001576377,  0.166666665974779 ]
    mass: 6.940000
    reduced_to: 25
  - symbol: Li # 29
    coordinates: [  0.250000003615591,  0.000000001576377,  0.499999999308113 ]
    mass: 6.940000
    reduced_to: 25
  - symbol: Li # 30
    coordinates: [  0.750000003615591,  0.000000001576377,  0.499999999308113 ]
    mass: 6.940000
    reduced_to: 25
  - symbol: Li # 31
    coordinates: [  0.250000003615591,  0.500000001576377,  0.499999999308113 ]
    mass: 6.940000
    reduced_to: 25
  - symbol: Li # 32
    coordinates: [  0.750000003615591,  0.500000001576377,  0.499999999308113 ]
    mass: 6.940000
    reduced_to: 25
  - symbol: Li # 33
    coordinates: [  0.250000003615591,  0.000000001576377,  0.833333332641446 ]
    mass: 6.940000
    reduced_to: 25
  - symbol: Li # 34
    coordinates: [  0.750000003615591,  0.000000001576377,  0.833333332641446 ]
    mass: 6.940000
    reduced_to: 25
  - symbol: Li # 35
    coordinates: [  0.250000003615591,  0.500000001576377,  0.833333332641446 ]
    mass: 6.940000
    reduced_to: 25
  - symbol: Li # 36
    coordinates: [  0.750000003615591,  0.500000001576377,  0.833333332641446 ]
    mass: 6.940000
    reduced_to: 25
  - symbol: Li # 37
    coordinates: [  0.499999997900415,  0.250000002202002,  0.166666666172302 ]
    mass: 6.940000
    reduced_to: 37
  - symbol: Li # 38
    coordinates: [  0.999999997900415,  0.250000002202002,  0.166666666172302 ]
    mass: 6.940000
    reduced_to: 37
  - symbol: Li # 39
    coordinates: [  0.499999997900415,  0.750000002202002,  0.166666666172302 ]
    mass: 6.940000
    reduced_to: 37
  - symbol: Li # 40
    coordinates: [  0.999999997900415,  0.750000002202002,  0.166666666172302 ]
    mass: 6.940000
    reduced_to: 37
  - symbol: Li # 41
    coordinates: [  0.499999997900415,  0.250000002202002,  0.499999999505636 ]
    mass: 6.940000
    reduced_to: 37
  - symbol: Li # 42
    coordinates: [  0.999999997900415,  0.250000002202002,  0.499999999505636 ]
    mass: 6.940000
    reduced_to: 37
  - symbol: Li # 43
    coordinates: [  0.499999997900415,  0.750000002202002,  0.499999999505636 ]
    mass: 6.940000
    reduced_to: 37
  - symbol: Li # 44
    coordinates: [  0.999999997900415,  0.750000002202002,  0.499999999505636 ]
    mass: 6.940000
    reduced_to: 37
  - symbol: Li # 45
    coordinates: [  0.499999997900415,  0.250000002202002,  0.833333332838969 ]
    mass: 6.940000
    reduced_to: 37
  - symbol: Li # 46
    coordinates: [  0.999999997900415,  0.250000002202002,  0.833333332838969 ]
    mass: 6.940000
    reduced_to: 37
  - symbol: Li # 47
    coordinates: [  0.499999997900415,  0.750000002202002,  0.833333332838969 ]
    mass: 6.940000
    reduced_to: 37
  - symbol: Li # 48
    coordinates: [  0.999999997900415,  0.750000002202002,  0.833333332838969 ]
    mass: 6.940000
    reduced_to: 37
  - symbol: Li # 49
    coordinates: [  0.249999995623729,  0.249999996413111,  0.166666666608827 ]
    mass: 6.940000
    reduced_to: 49
  - symbol: Li # 50
    coordinates: [  0.749999995623729,  0.249999996413111,  0.166666666608827 ]
    mass: 6.940000
    reduced_to: 49
  - symbol: Li # 51
    coordinates: [  0.249999995623729,  0.749999996413111,  0.166666666608827 ]
    mass: 6.940000
    reduced_to: 49
  - symbol: Li # 52
    coordinates: [  0.749999995623729,  0.749999996413111,  0.166666666608827 ]
    mass: 6.940000
    reduced_to: 49
  - symbol: Li # 53
    coordinates: [  0.249999995623729,  0.249999996413111,  0.499999999942161 ]
    mass: 6.940000
    reduced_to: 49
  - symbol: Li # 54
    coordinates: [  0.749999995623729,  0.249999996413111,  0.499999999942161 ]
    mass: 6.940000
    reduced_to: 49
  - symbol: Li # 55
    coordinates: [  0.249999995623729,  0.749999996413111,  0.499999999942161 ]
    mass: 6.940000
    reduced_to: 49
  - symbol: Li # 56
    coordinates: [  0.749999995623729,  0.749999996413111,  0.499999999942161 ]
    mass: 6.940000
    reduced_to: 49
  - symbol: Li # 57
    coordinates: [  0.249999995623729,  0.249999996413111,  0.833333333275494 ]
    mass: 6.940000
    reduced_to: 49
  - symbol: Li # 58
    coordinates: [  0.749999995623729,  0.249999996413111,  0.833333333275494 ]
    mass: 6.940000
    reduced_to: 49
  - symbol: Li # 59
    coordinates: [  0.249999995623729,  0.749999996413111,  0.833333333275494 ]
    mass: 6.940000
    reduced_to: 49
  - symbol: Li # 60
    coordinates: [  0.749999995623729,  0.749999996413111,  0.833333333275494 ]
    mass: 6.940000
    reduced_to: 49
  - symbol: Sn # 61
    coordinates: [  0.000000001819234,  0.000000001700432,  0.333333333329978 ]
    mass: 118.710000
    reduced_to: 61
  - symbol: Sn # 62
    coordinates: [  0.500000001819234,  0.000000001700432,  0.333333333329978 ]
    mass: 118.710000
    reduced_to: 61
  - symbol: Sn # 63
    coordinates: [  0.000000001819234,  0.500000001700432,  0.333333333329978 ]
    mass: 118.710000
    reduced_to: 61
  - symbol: Sn # 64
    coordinates: [  0.500000001819234,  0.500000001700432,  0.333333333329978 ]
    mass: 118.710000
    reduced_to: 61
  - symbol: Sn # 65
    coordinates: [  0.000000001819234,  0.000000001700432,  0.666666666663312 ]
    mass: 118.710000
    reduced_to: 61
  - symbol: Sn # 66
    coordinates: [  0.500000001819234,  0.000000001700432,  0.666666666663312 ]
    mass: 118.710000
    reduced_to: 61
  - symbol: Sn # 67
    coordinates: [  0.000000001819234,  0.500000001700432,  0.666666666663312 ]
    mass: 118.710000
    reduced_to: 61
  - symbol: Sn # 68
    coordinates: [  0.500000001819234,  0.500000001700432,  0.666666666663312 ]
    mass: 118.710000
    reduced_to: 61
  - symbol: Sn # 69
    coordinates: [  0.000000001819234,  0.000000001700432,  0.999999999996645 ]
    mass: 118.710000
    reduced_to: 61
  - symbol: Sn # 70
    coordinates: [  0.500000001819234,  0.000000001700432,  0.999999999996645 ]
    mass: 118.710000
    reduced_to: 61
  - symbol: Sn # 71
    coordinates: [  0.000000001819234,  0.500000001700432,  0.999999999996645 ]
    mass: 118.710000
    reduced_to: 61
  - symbol: Sn # 72
    coordinates: [  0.500000001819234,  0.500000001700432,  0.999999999996645 ]
    mass: 118.710000
    reduced_to: 61

displacements:
- atom:    1
  displacement:
    [   0.0057237081475835,  0.0000000003446889,  0.0081999490877253 ]
  forces:
  - [  -0.0098517462611198, -0.0000386592000723, -0.0218710619956255 ]
  - [   0.0000695046037436, -0.0000008624047041, -0.0000405903265346 ]
  - [   0.0002292325079907,  0.0000911708921194, -0.0000374357769033 ]
  - [   0.0002299590851180, -0.0000947713851929, -0.0000396020623157 ]
  - [   0.0000233636237681,  0.0000003301538527, -0.0007864286890253 ]
  - [   0.0000038514845073,  0.0000199261121452,  0.0000009312079783 ]
  - [  -0.0000184318923857, -0.0000118380412459,  0.0000131095293909 ]
  - [   0.0000140479978654, -0.0000064028427005, -0.0000100067991298 ]
  - [   0.0000228993594646, -0.0000007678754628, -0.0007572912145406 ]
  - [   0.0000032810494304, -0.0000186953693628,  0.0000004902394721 ]
  - [   0.0000155933084898,  0.0000059450976551, -0.0000078214507084 ]
  - [  -0.0000174756278284,  0.0000111688859761,  0.0000137051683851 ]
  - [   0.0016655141953379, -0.0012341775000095,  0.0002024964051088 ]
  - [   0.0016643078997731,  0.0012291595339775,  0.0002072227362078 ]
  - [  -0.0004679150879383, -0.0000057592988014,  0.0002066442975774 ]
  - [  -0.0005960855633020,  0.0000033965334296, -0.0001933895400725 ]
  - [   0.0000514904240845, -0.0000288411865768,  0.0001973842736334 ]
  - [  -0.0000375526433345, -0.0000231228659686,  0.0001350516686216 ]
  - [   0.0000011166557670,  0.0000511013204232,  0.0001664215087658 ]
  - [  -0.0000039497390389, -0.0000001549487934,  0.0000097113806987 ]
  - [  -0.0000381597565138,  0.0000227838754654,  0.0001340049202554 ]
  - [   0.0000504819035996,  0.0000283978879452,  0.0001941894588526 ]
  - [   0.0000003622844815, -0.0000508696539328,  0.0001661262067501 ]
  - [  -0.0000036926940084,  0.0000014033867046,  0.0000107414907689 ]
  - [  -0.0004344293847680,  0.0007392785628326, -0.0005246670916677 ]
  - [   0.0001559429802001,  0.0001097202912206, -0.0000987574458122 ]
  - [  -0.0003696903586388,  0.0020668371580541,  0.0035638320259750 ]
  - [   0.0000522211194038,  0.0000136235030368,  0.0000716587528586 ]
  - [  -0.0000002598570461, -0.0000037675458771,  0.0000068750232458 ]
  - [   0.0000004804460332,  0.0000025724473289,  0.0000073425471783 ]
  - [   0.0000046547502279,  0.0000007280468708,  0.0000219442881644 ]
  - [  -0.0000049397349358,  0.0000004752055247, -0.0000238767825067 ]
  - [   0.0001563597470522, -0.0001149278396042, -0.0001023648073897 ]
  - [  -0.0004361924075056, -0.0007363324984908, -0.0005230122478679 ]
  - [  -0.0003500822931528, -0.0020326860249043,  0.0035331440158188 ]
  - [   0.0000507403165102, -0.0000145167978189,  0.0000711125321686 ]
  - [  -0.0009142281487584,  0.0000062364852056, -0.0005260524339974 ]
  - [  -0.0011895522475243, -0.0004740381846204,  0.0020510051399469 ]
  - [  -0.0002481152769178, -0.0005167089402676, -0.0003136880695820 ]
  - [  -0.0000189223792404, -0.0000420724973083,  0.0000891676172614 ]
  - [   0.0000009741634130,  0.0000032538082451,  0.0000077318400145 ]
  - [  -0.0000021886080503, -0.0000037088757381,  0.0000223158858716 ]
  - [   0.0000009196810424, -0.0000026626512408,  0.0000070543028414 ]
  - [  -0.0000005564652383,  0.0000008838251233, -0.0000245920382440 ]
  - [   0.0001217536628246, -0.0000791000202298, -0.0000988813117146 ]
  - [   0.0023460071533918,  0.0015558302402496,  0.0050046015530825 ]
  - [   0.0001921870280057,  0.0004218313843012, -0.0003103776834905 ]
  - [   0.0000051711685956, -0.0000271787866950,  0.0000513638369739 ]
  - [   0.0023909714072943, -0.0015946831554174,  0.0050866380333900 ]
  - [   0.0001150919124484,  0.0000804523006082, -0.0000961311161518 ]
  - [   0.0001911716535687, -0.0004175698850304, -0.0003090538084507 ]
  - [   0.0000045187771320,  0.0000284558627754,  0.0000527314841747 ]
  - [  -0.0000003166496754,  0.0000031271483749,  0.0000224872492254 ]
  - [   0.0000004740431905, -0.0000036191195250,  0.0000077374279499 ]
  - [   0.0000009825453162,  0.0000038180733100,  0.0000069271773100 ]
  - [   0.0000000502914190, -0.0000012747477740, -0.0000238898210227 ]
  - [  -0.0011749444529414,  0.0004744809120893,  0.0020544980652630 ]
  - [  -0.0009123096242547, -0.0000078976154327, -0.0005249402020127 ]
  - [  -0.0002509504556656,  0.0005192062817514, -0.0003174678422511 ]
  - [  -0.0000206734985113,  0.0000418386189267,  0.0000896635465324 ]
  - [  -0.0000168122351170, -0.0001807075022953,  0.0002059526741505 ]
  - [   0.0000195517659449, -0.0000007411876481,  0.0000344105064869 ]
  - [  -0.0001373086124659,  0.0000695008784533,  0.0001680366694927 ]
  - [   0.0001747233618516,  0.0001104790717363,  0.0002451166510582 ]
  - [  -0.0000167675316334,  0.0001794852141757,  0.0002088472247124 ]
  - [   0.0000188983976841, -0.0000009433138075,  0.0000364929437637 ]
  - [   0.0001743260945659, -0.0001100343215512,  0.0002457723021507 ]
  - [  -0.0001378180459142, -0.0000689741718816,  0.0001710131764412 ]
  - [   0.0003371611237526,  0.0000113714177132,  0.0009532161056995 ]
  - [   0.0000667166459607, -0.0000014753763935, -0.0001023076474667 ]
  - [   0.0034917041193694, -0.0018186583183706,  0.0009556636214256 ]
  - [   0.0035533264745027,  0.0018609561957419,  0.0009511299431324 ]
- atom:   25
  displacement:
    [  -0.0028618540710654,  0.0049568770341340,  0.0081999488623040 ]
  forces:
  - [   0.0000354871153831, -0.0000821799039841,  0.0000458911999885 ]
  - [   0.0001037158071995,  0.0000298172235489, -0.0001611344778212 ]
  - [   0.0001725718320813,  0.0032332744449377,  0.0047472929582000 ]
  - [  -0.0000262918074441, -0.0000531934201717,  0.0000791780912550 ]
  - [   0.0006462205201387, -0.0004428070969880, -0.0006724663544446 ]
  - [  -0.0005061686970294, -0.0003281482495368, -0.0004661160055548 ]
  - [   0.0001831895788200, -0.0016956371255219,  0.0023093281779438 ]
  - [  -0.0000255629583990,  0.0000090226531029,  0.0000630726572126 ]
  - [  -0.0000029793009162, -0.0000009960494936,  0.0000061046066548 ]
  - [   0.0000028628855944,  0.0000026989728212,  0.0000062465078372 ]
  - [  -0.0000015083787730, -0.0000034351833165,  0.0000239258224610 ]
  - [   0.0000026801426429, -0.0000005718320608, -0.0000231161538977 ]
  - [   0.0001766316418070, -0.0016767941415310,  0.0023099556565285 ]
  - [  -0.0000262611538346,  0.0000053309013310,  0.0000599519262323 ]
  - [   0.0006428435444832, -0.0004407260566950, -0.0006717329379171 ]
  - [  -0.0005040690302849, -0.0003284243866801, -0.0004663725558203 ]
  - [   0.0001869272236945,  0.0032956823706627,  0.0048310533165932 ]
  - [  -0.0000244287512032, -0.0000562444220122,  0.0000805546587799 ]
  - [   0.0000378657132387, -0.0000845787581056,  0.0000501427821291 ]
  - [   0.0001005772501230,  0.0000286626163870, -0.0001558881776873 ]
  - [  -0.0000023399127258, -0.0000027194619179,  0.0000222548260354 ]
  - [   0.0000019750732463,  0.0000003948807716, -0.0000256234488916 ]
  - [  -0.0000034533441067,  0.0000001498265192,  0.0000081241087173 ]
  - [   0.0000027278438210,  0.0000037053832784,  0.0000082452206698 ]
  - [  -0.0001671981299296, -0.0194695051759481, -0.0050799218006432 ]
  - [  -0.0001767476205714, -0.0000784476360423, -0.0003983899950981 ]
  - [   0.0000578588806093, -0.0001576348586241,  0.0002125618048012 ]
  - [  -0.0001519778743386, -0.0000367300926882,  0.0002126516774297 ]
  - [   0.0000726748112356, -0.0000053739086070, -0.0003774147480726 ]
  - [  -0.0000560497283004, -0.0000029631451071,  0.0001196637749672 ]
  - [  -0.0000065597705543,  0.0000154353656399, -0.0000055017881095 ]
  - [   0.0000051660463214,  0.0000088012766355, -0.0000056186690927 ]
  - [   0.0000713588524377, -0.0000056744356698, -0.0003315506037325 ]
  - [  -0.0000562686836929, -0.0000017557613319,  0.0001201910199597 ]
  - [  -0.0000052787363529,  0.0000145139820233, -0.0000059814192355 ]
  - [   0.0000047087669373,  0.0000081351226981, -0.0000055339187384 ]
  - [   0.0025787297636271,  0.0025836112909019, -0.0015228004194796 ]
  - [   0.0004887459799647, -0.0000917022116482, -0.0000484236516058 ]
  - [   0.0004959879443049, -0.0000968975946307, -0.0000501843169332 ]
  - [   0.0025839044246823,  0.0026101097464561, -0.0015017334371805 ]
  - [   0.0000837408006191,  0.0000781539129093,  0.0002408600412309 ]
  - [  -0.0000640405341983,  0.0000856904080138,  0.0000972752459347 ]
  - [   0.0000159719493240, -0.0000328309834003,  0.0000417479313910 ]
  - [   0.0000084144994617, -0.0001310892403126,  0.0001865494996309 ]
  - [   0.0000081695616245, -0.0001287311315536,  0.0001873048022389 ]
  - [   0.0000153882429004, -0.0000323792919517,  0.0000429833307862 ]
  - [  -0.0000623951200396,  0.0000864211469889,  0.0000961096957326 ]
  - [   0.0000806511379778,  0.0000783540308475,  0.0002362607046962 ]
  - [  -0.0035506384447217,  0.0060805734246969, -0.0015359334647655 ]
  - [  -0.0001627597957850, -0.0000408561900258, -0.0000476688146591 ]
  - [  -0.0035279719159007,  0.0060261841863394, -0.0014896090142429 ]
  - [  -0.0001661255955696, -0.0000424372265115, -0.0000504548661411 ]
  - [  -0.0000376543030143,  0.0001347346697003,  0.0002896091900766 ]
  - [   0.0000280495733023,  0.0000347085297108,  0.0000481642782688 ]
  - [   0.0000368086621165, -0.0000722546828911,  0.0001377677544951 ]
  - [  -0.0000499598681927, -0.0000825792085379,  0.0000913580879569 ]
  - [   0.0000358335673809, -0.0000728406012058,  0.0001370340032736 ]
  - [  -0.0000498024746776, -0.0000832509249449,  0.0000919330632314 ]
  - [  -0.0000374196097255,  0.0001346707576886,  0.0002856939099729 ]
  - [   0.0000275187194347,  0.0000352481147274,  0.0000465530902147 ]
  - [   0.0013003014028072,  0.0001675436360529, -0.0008843988180161 ]
  - [  -0.0010753055103123,  0.0001661632413743, -0.0004033707082272 ]
  - [   0.0000073686242104,  0.0002666525542736, -0.0001244246959686 ]
  - [   0.0000082969436335,  0.0000250209122896,  0.0001858286559582 ]
  - [  -0.0000000409782501,  0.0000035402185858, -0.0000267624855042 ]
  - [  -0.0000004395842552,  0.0000034123800106, -0.0000273548066616 ]
  - [   0.0000008290868436, -0.0000039976557673, -0.0000126324594021 ]
  - [   0.0000001722946763, -0.0000040833374442, -0.0000133663415909 ]
  - [  -0.0010582469403744,  0.0001611280022189, -0.0003908500075340 ]
  - [   0.0012578056193888,  0.0001594400673639, -0.0008372999727726 ]
  - [   0.0000077688837337,  0.0000259899079538,  0.0001850239932537 ]
  - [   0.0000075355405897,  0.0002674725255929, -0.0001248642802238 ]
- atom:   61
  displacement:
    [   0.0057237081475835,  0.0000000003446889,  0.0081999490877253 ]
  forces:
  - [  -0.0000170134007931, -0.0000625513494015,  0.0002055631484836 ]
  - [   0.0000192094594240, -0.0000008149072528,  0.0000340428523486 ]
  - [  -0.0000362247265002,  0.0000114087015390,  0.0001002281933324 ]
  - [   0.0000717736620572,  0.0000501312315464,  0.0003132990386803 ]
  - [   0.0003370633348823, -0.0000146087259054,  0.0009537260048091 ]
  - [   0.0000683665275574,  0.0000010472722352, -0.0001030047060340 ]
  - [   0.0035511609166861, -0.0018599401228130,  0.0009504928602837 ]
  - [   0.0034948771353811,  0.0018201838247478,  0.0009572078706697 ]
  - [  -0.0000171940773726,  0.0000599254854023,  0.0002068794856314 ]
  - [   0.0000190013088286,  0.0000000819563866,  0.0000337501405738 ]
  - [   0.0000721715914551, -0.0000517433509231,  0.0003203230444342 ]
  - [  -0.0000336786033586, -0.0000107921659946,  0.0000995663867798 ]
  - [  -0.0000354975236405, -0.0000115931034088,  0.0000981825141935 ]
  - [   0.0000725175632397, -0.0000503212104377,  0.0003118299937341 ]
  - [   0.0000194329768419,  0.0000001862645149,  0.0000358370962203 ]
  - [  -0.0000172872096300,  0.0000628810375929,  0.0002059878606815 ]
  - [   0.0035508596338332,  0.0018602237105370,  0.0009501273743808 ]
  - [   0.0034945863299072, -0.0018196254968643,  0.0009572139242664 ]
  - [   0.0000678012147546, -0.0000008189817891, -0.0001021858188324 ]
  - [   0.0003354027867317,  0.0000154406297952,  0.0009542349143885 ]
  - [   0.0000711749380571,  0.0000511333346367,  0.0003181961947121 ]
  - [  -0.0000343263382092,  0.0000094883143902,  0.0000970522232819 ]
  - [   0.0000182744115591,  0.0000007367925718,  0.0000358621909982 ]
  - [  -0.0000170888379216, -0.0000595364253968,  0.0002091990754707 ]
  - [   0.0004504318349063, -0.0000001007532049,  0.0001892703585327 ]
  - [  -0.0008493594941683, -0.0000001474315496, -0.0014152713119984 ]
  - [  -0.0000148927792907, -0.0002563408925198,  0.0000298283994198 ]
  - [  -0.0000153239816427,  0.0002549278142396,  0.0000302400439978 ]
  - [  -0.0009068073704839, -0.0000005334954380, -0.0014805546961725 ]
  - [   0.0004543506656773, -0.0000005653265589,  0.0001908503472805 ]
  - [  -0.0000171056017280,  0.0002574863610789,  0.0000314232893288 ]
  - [  -0.0000164611265063, -0.0002565683389548,  0.0000313878990710 ]
  - [  -0.0000003818422556,  0.0000000345349171, -0.0000292855547741 ]
  - [   0.0000014807667412,  0.0000007001250992, -0.0000278111547232 ]
  - [  -0.0000004097819328, -0.0000003009496368, -0.0000141067430377 ]
  - [  -0.0000012498348951,  0.0000003934350161, -0.0000137989409268 ]
  - [  -0.0000997371971607, -0.0000483142212033,  0.0001035588793457 ]
  - [  -0.0002361983060837,  0.0007337838178501, -0.0010189367458224 ]
  - [   0.0003437940031290,  0.0002066511660814, -0.0000421153381467 ]
  - [   0.0004199694376439, -0.0003974754363298, -0.0002156244590878 ]
  - [   0.0003454191610217,  0.0002096629468724, -0.0000422941520810 ]
  - [   0.0004244334995747, -0.0004074128810316, -0.0002222531475127 ]
  - [  -0.0000989085529000, -0.0000486467033625,  0.0001036794856191 ]
  - [  -0.0002509772311896,  0.0007667820900679, -0.0010590585879982 ]
  - [  -0.0000040177255869, -0.0000022863969207, -0.0000135358422995 ]
  - [   0.0000034989789128,  0.0000016996636987, -0.0000271708704531 ]
  - [  -0.0000034254044294, -0.0000011613592505, -0.0000139153562486 ]
  - [   0.0000042880419642,  0.0000015525147319, -0.0000296467915177 ]
  - [   0.0004188204184175,  0.0003977343440056, -0.0002150833606720 ]
  - [   0.0003431644290686, -0.0002061100676656, -0.0000419728457928 ]
  - [  -0.0001004086807370,  0.0000485883792862,  0.0001028971746564 ]
  - [  -0.0002362774685025, -0.0007316672708839, -0.0010177474468946 ]
  - [  -0.0002502705901861, -0.0007682166760787, -0.0010583274997771 ]
  - [  -0.0000988487154245,  0.0000484269112349,  0.0001047775149345 ]
  - [   0.0003458419814706, -0.0002083908766508, -0.0000428906641901 ]
  - [   0.0004259860143065,  0.0004080863436684, -0.0002230578102171 ]
  - [   0.0000039134174585, -0.0000014118850231, -0.0000283767803921 ]
  - [  -0.0000029215589166,  0.0000019650906324, -0.0000123141799122 ]
  - [  -0.0000052349641919,  0.0000022995518520, -0.0000158143229783 ]
  - [   0.0000036340206861, -0.0000011455267668, -0.0000287252478302 ]
  - [  -0.0160294715315104, -0.0000006560421184, -0.0064038503915071 ]
  - [  -0.0000113774585770, -0.0000009084765793,  0.0001349188387394 ]
  - [   0.0001835515722632,  0.0001128390431404,  0.0001350343227386 ]
  - [   0.0001839304168243, -0.0001129955053329,  0.0001346245408058 ]
  - [  -0.0000169024624483, -0.0000011484125935,  0.0033453144133091 ]
  - [  -0.0001058205962181, -0.0000011075466091, -0.0001507177948952 ]
  - [   0.0000187877794815,  0.0000727470469428, -0.0001500323414803 ]
  - [   0.0000191135331988, -0.0000714738416718, -0.0001502931118011 ]
  - [  -0.0000118038542496, -0.0000006388892189,  0.0028391797095537 ]
  - [  -0.0001046224933816, -0.0000004162586151, -0.0001483038067818 ]
  - [   0.0000199710721063,  0.0000701196986483, -0.0001493133604527 ]
  - [   0.0000194089716388, -0.0000708695006324, -0.0001484043896198 ]

force_constants:
  format: "full"
  shape: [ 72, 72 ]
  elements:
  - # (1, 1)
    - [     1.721219905181053,    -0.000000000625064,    -0.000000007577826 ]
    - [    -0.000000000625064,     1.721219905145498,     0.000000019026421 ]
    - [    -0.000000007577826,     0.000000019026421,     2.667218836444161 ]
  - # (1, 2)
    - [    -0.012086120635094,     0.000000000266661,    -0.000000000023301 ]
    - [    -0.000000000261934,    -0.049488668513202,     0.000000000507079 ]
    - [    -0.000000000460746,     0.000000000476677,     0.004781256229964 ]
  - # (1, 3)
    - [    -0.040138032429250,    -0.016195779402768,     0.000000000524578 ]
    - [    -0.016195779757248,    -0.021436756805251,    -0.000000000385989 ]
    - [     0.000000000746265,    -0.000000000568827,     0.004781257016330 ]
  - # (1, 4)
    - [    -0.040138031598166,     0.016195779722458,    -0.000000000582657 ]
    - [     0.016195780828464,    -0.021436758602577,     0.000000000434364 ]
    - [    -0.000000002810888,     0.000000001703632,     0.004781256227125 ]
  - # (1, 5)
    - [    -0.004038898560143,    -0.000000000673245,    -0.000000000187112 ]
    - [    -0.000000000577562,    -0.004038899040730,     0.000000001514185 ]