phonopy:
  version: "2.37.1"
  frequency_unit_conversion_factor: 15.633302
  symmetry_tolerance: 1.00000e-05

space_group:
  type: "P1"
  number: 1
  Hall_symbol: "P 1"

primitive_matrix:
- [ -1.000000000000000, -0.000000000000000,  0.000000000000000 ]
- [  0.000000000000000, -1.000000000000000,  0.000000000000000 ]
- [  0.000000000000000,  0.000000000000000,  1.000000000000000 ]

supercell_matrix:
- [   3,   0,   0 ]
- [   0,   3,   0 ]
- [   0,   0,   1 ]

primitive_cell:
  lattice:
  - [    -4.565410873070361,     0.000000000000000,     0.000000000000000 ] # a
  - [    -0.000001749710428,    -4.566370862107697,     0.000000000000000 ] # b
  - [    -2.282056760273290,    -2.281904343692765,    12.583462349507863 ] # c
  points:
  - symbol: Li # 1
    coordinates: [  0.209030560050282,  0.859133411517634,  0.280202594945638 ]
    mass: 6.940000
  - symbol: Li # 2
    coordinates: [  0.119888231351305,  0.269564936275448,  0.459017349650552 ]
    mass: 6.940000
  - symbol: Li # 3
    coordinates: [  0.624593912023581,  0.773981581566165,  0.449377287277413 ]
    mass: 6.940000
  - symbol: Li # 4
    coordinates: [  0.369504555976895,  0.019464988535638,  0.959182418509537 ]
    mass: 6.940000
  - symbol: Li # 5
    coordinates: [  0.959188892265463,  0.108955633486105,  0.780079861241839 ]
    mass: 6.940000
  - symbol: Li # 6
    coordinates: [  0.874377926457485,  0.524136430746879,  0.949654571689787 ]
    mass: 6.940000
  - symbol: Sn # 7
    coordinates: [  0.291166607317582,  0.441183479401290,  0.115824385953373 ]
    mass: 118.710000
  - symbol: Sn # 8
    coordinates: [  0.448301923442938,  0.597967937040871,  0.801740771094850 ]
    mass: 118.710000
  - symbol: Sn # 9
    coordinates: [  0.042968028202909,  0.692587374029681,  0.612910445704501 ]
    mass: 118.710000
  - symbol: Sn # 10
    coordinates: [  0.541314439405469,  0.190966071518172,  0.615898303341115 ]
    mass: 118.710000
  - symbol: Sn # 11
    coordinates: [  0.792683372650474,  0.942642275521485,  0.112998680817527 ]
    mass: 118.710000
  - symbol: Sn # 12
    coordinates: [  0.698308977318169,  0.347663965670339,  0.302000114135126 ]
    mass: 118.710000
  reciprocal_lattice: # without 2pi
  - [    -0.219038335826163,     0.000000083929596,    -0.039723385315437 ] # a*
  - [    -0.000000000000000,    -0.218992287354083,    -0.039712396943600 ] # b*
  - [    -0.000000000000000,    -0.000000000000000,     0.079469383880591 ] # c*

unit_cell:
  lattice:
  - [     4.565410873070361,     0.000000000000000,     0.000000000000000 ] # a
  - [     0.000001749710428,     4.566370862107697,     0.000000000000000 ] # b
  - [    -2.282056760273290,    -2.281904343692765,    12.583462349507860 ] # c
  points:
  - symbol: Li # 1
    coordinates: [  0.790969439949718,  0.140866588482366,  0.280202594945638 ]
    mass: 6.940000
    reduced_to: 1
  - symbol: Li # 2
    coordinates: [  0.880111768648695,  0.730435063724552,  0.459017349650552 ]
    mass: 6.940000
    reduced_to: 2
  - symbol: Li # 3
    coordinates: [  0.375406087976419,  0.226018418433835,  0.449377287277413 ]
    mass: 6.940000
    reduced_to: 3
  - symbol: Li # 4
    coordinates: [  0.630495444023105,  0.980535011464363,  0.959182418509537 ]
    mass: 6.940000
    reduced_to: 4
  - symbol: Li # 5
    coordinates: [  0.040811107734537,  0.891044366513895,  0.780079861241839 ]
    mass: 6.940000
    reduced_to: 5
  - symbol: Li # 6
    coordinates: [  0.125622073542515,  0.475863569253121,  0.949654571689787 ]
    mass: 6.940000
    reduced_to: 6
  - symbol: Sn # 7
    coordinates: [  0.708833392682418,  0.558816520598710,  0.115824385953373 ]
    mass: 118.710000
    reduced_to: 7
  - symbol: Sn # 8
    coordinates: [  0.551698076557062,  0.402032062959129,  0.801740771094850 ]
    mass: 118.710000
    reduced_to: 8
  - symbol: Sn # 9
    coordinates: [  0.957031971797091,  0.307412625970319,  0.612910445704501 ]
    mass: 118.710000
    reduced_to: 9
  - symbol: Sn # 10
    coordinates: [  0.458685560594531,  0.809033928481828,  0.615898303341115 ]
    mass: 118.710000
    reduced_to: 10
  - symbol: Sn # 11
    coordinates: [  0.207316627349526,  0.057357724478515,  0.112998680817527 ]
    mass: 118.710000
    reduced_to: 11
  - symbol: Sn # 12
    coordinates: [  0.301691022681831,  0.652336034329661,  0.302000114135126 ]
    mass: 118.710000
    reduced_to: 12

supercell:
  lattice:
  - [    13.696232619211083,     0.000000000000000,     0.000000000000000 ] # a
  - [     0.000005249131285,    13.699112586323093,     0.000000000000000 ] # b
  - [    -2.282056760273290,    -2.281904343692765,    12.583462349507860 ] # c
  points:
  - symbol: Li # 1
    coordinates: [  0.263656479983239,  0.046955529494122,  0.280202594945638 ]
    mass: 6.940000
    reduced_to: 1
  - symbol: Li # 2
    coordinates: [  0.596989813316573,  0.046955529494122,  0.280202594945638 ]
    mass: 6.940000
    reduced_to: 1
  - symbol: Li # 3
    coordinates: [  0.930323146649906,  0.046955529494122,  0.280202594945638 ]
    mass: 6.940000
    reduced_to: 1
  - symbol: Li # 4
    coordinates: [  0.263656479983239,  0.380288862827455,  0.280202594945638 ]
    mass: 6.940000
    reduced_to: 1
  - symbol: Li # 5
    coordinates: [  0.596989813316573,  0.380288862827455,  0.280202594945638 ]
    mass: 6.940000
    reduced_to: 1
  - symbol: Li # 6
    coordinates: [  0.930323146649906,  0.380288862827455,  0.280202594945638 ]
    mass: 6.940000
    reduced_to: 1
  - symbol: Li # 7
    coordinates: [  0.263656479983239,  0.713622196160789,  0.280202594945638 ]
    mass: 6.940000
    reduced_to: 1
  - symbol: Li # 8
    coordinates: [  0.596989813316573,  0.713622196160789,  0.280202594945638 ]
    mass: 6.940000
    reduced_to: 1
  - symbol: Li # 9
    coordinates: [  0.930323146649906,  0.713622196160789,  0.280202594945638 ]
    mass: 6.940000
    reduced_to: 1
  - symbol: Li # 10
    coordinates: [  0.293370589549565,  0.243478354574851,  0.459017349650552 ]
    mass: 6.940000
    reduced_to: 10
  - symbol: Li # 11
    coordinates: [  0.626703922882898,  0.243478354574851,  0.459017349650552 ]
    mass: 6.940000
    reduced_to: 10
  - symbol: Li # 12
    coordinates: [  0.960037256216232,  0.243478354574851,  0.459017349650552 ]
    mass: 6.940000
    reduced_to: 10
  - symbol: Li # 13
    coordinates: [  0.293370589549565,  0.576811687908184,  0.459017349650552 ]
    mass: 6.940000
    reduced_to: 10
  - symbol: Li # 14
    coordinates: [  0.626703922882898,  0.576811687908184,  0.459017349650552 ]
    mass: 6.940000
    reduced_to: 10
  - symbol: Li # 15
    coordinates: [  0.960037256216232,  0.576811687908184,  0.459017349650552 ]
    mass: 6.940000
    reduced_to: 10
  - symbol: Li # 16
    coordinates: [  0.293370589549565,  0.910145021241517,  0.459017349650552 ]
    mass: 6.940000
    reduced_to: 10
  - symbol: Li # 17
    coordinates: [  0.626703922882898,  0.910145021241517,  0.459017349650552 ]
    mass: 6.940000
    reduced_to: 10
  - symbol: Li # 18
    coordinates: [  0.960037256216232,  0.910145021241517,  0.459017349650552 ]
    mass: 6.940000
    reduced_to: 10
  - symbol: Li # 19
    coordinates: [  0.125135362658806,  0.075339472811278,  0.449377287277413 ]
    mass: 6.940000
    reduced_to: 19
  - symbol: Li # 20
    coordinates: [  0.458468695992139,  0.075339472811278,  0.449377287277413 ]
    mass: 6.940000
    reduced_to: 19
  - symbol: Li # 21
    coordinates: [  0.791802029325473,  0.075339472811278,  0.449377287277413 ]
    mass: 6.940000
    reduced_to: 19
  - symbol: Li # 22
    coordinates: [  0.125135362658806,  0.408672806144612,  0.449377287277413 ]
    mass: 6.940000
    reduced_to: 19
  - symbol: Li # 23
    coordinates: [  0.458468695992139,  0.408672806144612,  0.449377287277413 ]
    mass: 6.940000
    reduced_to: 19
  - symbol: Li # 24
    coordinates: [  0.791802029325473,  0.408672806144612,  0.449377287277413 ]
    mass: 6.940000
    reduced_to: 19
  - symbol: Li # 25
    coordinates: [  0.125135362658806,  0.742006139477945,  0.449377287277413 ]
    mass: 6.940000
    reduced_to: 19
  - symbol: Li # 26
    coordinates: [  0.458468695992139,  0.742006139477945,  0.449377287277413 ]
    mass: 6.940000
    reduced_to: 19
  - symbol: Li # 27
    coordinates: [  0.791802029325473,  0.742006139477945,  0.449377287277413 ]
    mass: 6.940000
    reduced_to: 19
  - symbol: Li # 28
    coordinates: [  0.210165148007702,  0.326845003821454,  0.959182418509537 ]
    mass: 6.940000
    reduced_to: 28
  - symbol: Li # 29
    coordinates: [  0.543498481341035,  0.326845003821454,  0.959182418509537 ]
    mass: 6.940000
    reduced_to: 28
  - symbol: Li # 30
    coordinates: [  0.876831814674368,  0.326845003821454,  0.959182418509537 ]
    mass: 6.940000
    reduced_to: 28
  - symbol: Li # 31
    coordinates: [  0.210165148007702,  0.660178337154787,  0.959182418509537 ]
    mass: 6.940000
    reduced_to: 28
  - symbol: Li # 32
    coordinates: [  0.543498481341035,  0.660178337154787,  0.959182418509537 ]
    mass: 6.940000
    reduced_to: 28
  - symbol: Li # 33
    coordinates: [  0.876831814674368,  0.660178337154787,  0.959182418509537 ]
    mass: 6.940000
    reduced_to: 28
  - symbol: Li # 34
    coordinates: [  0.210165148007702,  0.993511670488121,  0.959182418509537 ]
    mass: 6.940000
    reduced_to: 28
  - symbol: Li # 35
    coordinates: [  0.543498481341035,  0.993511670488121,  0.959182418509537 ]
    mass: 6.940000
    reduced_to: 28
  - symbol: Li # 36
    coordinates: [  0.876831814674368,  0.993511670488121,  0.959182418509537 ]
    mass: 6.940000
    reduced_to: 28
  - symbol: Li # 37
    coordinates: [  0.013603702578179,  0.297014788837965,  0.780079861241839 ]
    mass: 6.940000
    reduced_to: 37
  - symbol: Li # 38
    coordinates: [  0.346937035911512,  0.297014788837965,  0.780079861241839 ]
    mass: 6.940000
    reduced_to: 37
  - symbol: Li # 39
    coordinates: [  0.680270369244846,  0.297014788837965,  0.780079861241839 ]
    mass: 6.940000
    reduced_to: 37
  - symbol: Li # 40
    coordinates: [  0.013603702578179,  0.630348122171298,  0.780079861241839 ]
    mass: 6.940000
    reduced_to: 37
  - symbol: Li # 41
    coordinates: [  0.346937035911512,  0.630348122171298,  0.780079861241839 ]
    mass: 6.940000
    reduced_to: 37
  - symbol: Li # 42
    coordinates: [  0.680270369244846,  0.630348122171298,  0.780079861241839 ]
    mass: 6.940000
    reduced_to: 37
  - symbol: Li # 43
    coordinates: [  0.013603702578179,  0.963681455504632,  0.780079861241839 ]
    mass: 6.940000
    reduced_to: 37
  - symbol: Li # 44
    coordinates: [  0.346937035911512,  0.963681455504632,  0.780079861241839 ]
    mass: 6.940000
    reduced_to: 37
  - symbol: Li # 45
    coordinates: [  0.680270369244846,  0.963681455504632,  0.780079861241839 ]
    mass: 6.940000
    reduced_to: 37
  - symbol: Li # 46
    coordinates: [  0.041874024514172,  0.158621189751040,  0.949654571689787 ]
    mass: 6.940000
    reduced_to: 46
  - symbol: Li # 47
    coordinates: [  0.375207357847505,  0.158621189751040,  0.949654571689787 ]
    mass: 6.940000
    reduced_to: 46
  - symbol: Li # 48
    coordinates: [  0.708540691180838,  0.158621189751040,  0.949654571689787 ]
    mass: 6.940000
    reduced_to: 46
  - symbol: Li # 49
    coordinates: [  0.041874024514172,  0.491954523084374,  0.949654571689787 ]
    mass: 6.940000
    reduced_to: 46
  - symbol: Li # 50
    coordinates: [  0.375207357847505,  0.491954523084374,  0.949654571689787 ]
    mass: 6.940000
    reduced_to: 46
  - symbol: Li # 51
    coordinates: [  0.708540691180838,  0.491954523084374,  0.949654571689787 ]
    mass: 6.940000
    reduced_to: 46
  - symbol: Li # 52
    coordinates: [  0.041874024514172,  0.825287856417707,  0.949654571689787 ]
    mass: 6.940000
    reduced_to: 46
  - symbol: Li # 53
    coordinates: [  0.375207357847505,  0.825287856417707,  0.949654571689787 ]
    mass: 6.940000
    reduced_to: 46
  - symbol: Li # 54
    coordinates: [  0.708540691180838,  0.825287856417707,  0.949654571689787 ]
    mass: 6.940000
    reduced_to: 46
  - symbol: Sn # 55
    coordinates: [  0.236277797560806,  0.186272173532903,  0.115824385953373 ]
    mass: 118.710000
    reduced_to: 55
  - symbol: Sn # 56
    coordinates: [  0.569611130894139,  0.186272173532903,  0.115824385953373 ]
    mass: 118.710000
    reduced_to: 55
  - symbol: Sn # 57
    coordinates: [  0.902944464227473,  0.186272173532903,  0.115824385953373 ]
    mass: 118.710000
    reduced_to: 55
  - symbol: Sn # 58
    coordinates: [  0.236277797560806,  0.519605506866237,  0.115824385953373 ]
    mass: 118.710000
    reduced_to: 55
  - symbol: Sn # 59
    coordinates: [  0.569611130894139,  0.519605506866237,  0.115824385953373 ]
    mass: 118.710000
    reduced_to: 55
  - symbol: Sn # 60
    coordinates: [  0.902944464227473,  0.519605506866237,  0.115824385953373 ]
    mass: 118.710000
    reduced_to: 55
  - symbol: Sn # 61
    coordinates: [  0.236277797560806,  0.852938840199570,  0.115824385953373 ]
    mass: 118.710000
    reduced_to: 55
  - symbol: Sn # 62
    coordinates: [  0.569611130894139,  0.852938840199570,  0.115824385953373 ]
    mass: 118.710000
    reduced_to: 55
  - symbol: Sn # 63
    coordinates: [  0.902944464227473,  0.852938840199570,  0.115824385953373 ]
    mass: 118.710000
    reduced_to: 55
  - symbol: Sn # 64
    coordinates: [  0.183899358852354,  0.134010687653043,  0.801740771094850 ]
    mass: 118.710000
    reduced_to: 64
  - symbol: Sn # 65
    coordinates: [  0.517232692185687,  0.134010687653043,  0.801740771094850 ]
    mass: 118.710000
    reduced_to: 64
  - symbol: Sn # 66
    coordinates: [  0.850566025519021,  0.134010687653043,  0.801740771094850 ]
    mass: 118.710000
    reduced_to: 64
  - symbol: Sn # 67
    coordinates: [  0.183899358852354,  0.467344020986376,  0.801740771094850 ]
    mass: 118.710000
    reduced_to: 64
  - symbol: Sn # 68
    coordinates: [  0.517232692185687,  0.467344020986376,  0.801740771094850 ]
    mass: 118.710000
    reduced_to: 64
  - symbol: Sn # 69
    coordinates: [  0.850566025519021,  0.467344020986376,  0.801740771094850 ]
    mass: 118.710000
    reduced_to: 64
  - symbol: Sn # 70
    coordinates: [  0.183899358852354,  0.800677354319710,  0.801740771094850 ]
    mass: 118.710000
    reduced_to: 64
  - symbol: Sn # 71
    coordinates: [  0.517232692185687,  0.800677354319710,  0.801740771094850 ]
    mass: 118.710000
    reduced_to: 64
  - symbol: Sn # 72
    coordinates: [  0.850566025519021,  0.800677354319710,  0.801740771094850 ]
    mass: 118.710000
    reduced_to: 64
  - symbol: Sn # 73
    coordinates: [  0.319010657265697,  0.102470875323440,  0.612910445704501 ]
    mass: 118.710000
    reduced_to: 73
  - symbol: Sn # 74
    coordinates: [  0.652343990599030,  0.102470875323440,  0.612910445704501 ]
    mass: 118.710000
    reduced_to: 73
  - symbol: Sn # 75
    coordinates: [  0.985677323932364,  0.102470875323440,  0.612910445704501 ]
    mass: 118.710000
    reduced_to: 73
  - symbol: Sn # 76
    coordinates: [  0.319010657265697,  0.435804208656773,  0.612910445704501 ]
    mass: 118.710000
    reduced_to: 73
  - symbol: Sn # 77
    coordinates: [  0.652343990599030,  0.435804208656773,  0.612910445704501 ]
    mass: 118.710000
    reduced_to: 73
  - symbol: Sn # 78
    coordinates: [  0.985677323932364,  0.435804208656773,  0.612910445704501 ]
    mass: 118.710000
    reduced_to: 73
  - symbol: Sn # 79
    coordinates: [  0.319010657265697,  0.769137541990106,  0.612910445704501 ]
    mass: 118.710000
    reduced_to: 73
  - symbol: Sn # 80
    coordinates: [  0.652343990599030,  0.769137541990106,  0.612910445704501 ]
    mass: 118.710000
    reduced_to: 73
  - symbol: Sn # 81
    coordinates: [  0.985677323932364,  0.769137541990106,  0.612910445704501 ]
    mass: 118.710000
    reduced_to: 73
  - symbol: Sn # 82
    coordinates: [  0.152895186864844,  0.269677976160609,  0.615898303341115 ]
    mass: 118.710000
    reduced_to: 82
  - symbol: Sn # 83
    coordinates: [  0.486228520198177,  0.269677976160609,  0.615898303341115 ]
    mass: 118.710000
    reduced_to: 82
  - symbol: Sn # 84
    coordinates: [  0.819561853531511,  0.269677976160609,  0.615898303341115 ]
    mass: 118.710000
    reduced_to: 82
  - symbol: Sn # 85
    coordinates: [  0.152895186864844,  0.603011309493943,  0.615898303341115 ]
    mass: 118.710000
    reduced_to: 82
  - symbol: Sn # 86
    coordinates: [  0.486228520198177,  0.603011309493943,  0.615898303341115 ]
    mass: 118.710000
    reduced_to: 82
  - symbol: Sn # 87
    coordinates: [  0.819561853531511,  0.603011309493943,  0.615898303341115 ]
    mass: 118.710000
    reduced_to: 82
  - symbol: Sn # 88
    coordinates: [  0.152895186864844,  0.936344642827276,  0.615898303341115 ]
    mass: 118.710000
    reduced_to: 82
  - symbol: Sn # 89
    coordinates: [  0.486228520198177,  0.936344642827276,  0.615898303341115 ]
    mass: 118.710000
    reduced_to: 82
  - symbol: Sn # 90
    coordinates: [  0.819561853531511,  0.936344642827276,  0.615898303341115 ]
    mass: 118.710000
    reduced_to: 82
  - symbol: Sn # 91
    coordinates: [  0.069105542449842,  0.019119241492838,  0.112998680817527 ]
    mass: 118.710000
    reduced_to: 91
  - symbol: Sn # 92
    coordinates: [  0.402438875783175,  0.019119241492838,  0.112998680817527 ]
    mass: 118.710000
    reduced_to: 91
  - symbol: Sn # 93
    coordinates: [  0.735772209116509,  0.019119241492838,  0.112998680817527 ]
    mass: 118.710000
    reduced_to: 91
  - symbol: Sn # 94
    coordinates: [  0.069105542449842,  0.352452574826172,  0.112998680817527 ]
    mass: 118.710000
    reduced_to: 91
  - symbol: Sn # 95
    coordinates: [  0.402438875783175,  0.352452574826172,  0.112998680817527 ]
    mass: 118.710000
    reduced_to: 91
  - symbol: Sn # 96
    coordinates: [  0.735772209116509,  0.352452574826172,  0.112998680817527 ]
    mass: 118.710000
    reduced_to: 91
  - symbol: Sn # 97
    coordinates: [  0.069105542449842,  0.685785908159505,  0.112998680817527 ]
    mass: 118.710000
    reduced_to: 91
  - symbol: Sn # 98
    coordinates: [  0.402438875783175,  0.685785908159505,  0.112998680817527 ]
    mass: 118.710000
    reduced_to: 91
  - symbol: Sn # 99
    coordinates: [  0.735772209116509,  0.685785908159505,  0.112998680817527 ]
    mass: 118.710000
    reduced_to: 91
  - symbol: Sn # 100
    coordinates: [  0.100563674227277,  0.217445344776554,  0.302000114135126 ]
    mass: 118.710000
    reduced_to: 100
  - symbol: Sn # 101
    coordinates: [  0.433897007560610,  0.217445344776554,  0.302000114135126 ]
    mass: 118.710000
    reduced_to: 100
  - symbol: Sn # 102
    coordinates: [  0.767230340893944,  0.217445344776554,  0.302000114135126 ]
    mass: 118.710000
    reduced_to: 100
  - symbol: Sn # 103
    coordinates: [  0.100563674227277,  0.550778678109887,  0.302000114135126 ]
    mass: 118.710000
    reduced_to: 100
  - symbol: Sn # 104
    coordinates: [  0.433897007560610,  0.550778678109887,  0.302000114135126 ]
    mass: 118.710000
    reduced_to: 100
  - symbol: Sn # 105
    coordinates: [  0.767230340893944,  0.550778678109887,  0.302000114135126 ]
    mass: 118.710000
    reduced_to: 100
  - symbol: Sn # 106
    coordinates: [  0.100563674227277,  0.884112011443220,  0.302000114135126 ]
    mass: 118.710000
    reduced_to: 100
  - symbol: Sn # 107
    coordinates: [  0.433897007560610,  0.884112011443220,  0.302000114135126 ]
    mass: 118.710000
    reduced_to: 100
  - symbol: Sn # 108
    coordinates: [  0.767230340893944,  0.884112011443220,  0.302000114135126 ]
    mass: 118.710000
    reduced_to: 100

displacements:
- atom:    1
  displacement:
    [   0.0100000000000000,  0.0000000000000000,  0.0000000000000000 ]
  forces:
  - [  -0.0115142147988081,  0.0019931429997087, -0.0111299958080053 ]
  - [  -0.0007741879671812,  0.0019918335601687, -0.0112365931272507 ]
  - [  -0.0007896292954683,  0.0019918000325561, -0.0111290123313665 ]
  - [  -0.0008877031505108,  0.0019907914102077, -0.0111815407872200 ]
  - [  -0.0011862516403198,  0.0016652457416058, -0.0111438836902380 ]
  - [  -0.0011764951050282,  0.0023091770708561, -0.0112162465229630 ]
  - [  -0.0008879601955414,  0.0019922591745853, -0.0111827012151480 ]
  - [  -0.0011862851679325,  0.0023179873824120, -0.0111440634354949 ]
  - [  -0.0011766217648983,  0.0016726031899452, -0.0112176649272442 ]
  - [   0.0010173181071877,  0.0009220227366313,  0.0054198056459427 ]
  - [   0.0010311505757272,  0.0010830250103027,  0.0053962590172887 ]
  - [   0.0010285452008247,  0.0007731749792583,  0.0054534059017897 ]
  - [   0.0009797858074307,  0.0009261186933145,  0.0054232953116298 ]
  - [   0.0009830496273935,  0.0009264449472539,  0.0054111843928695 ]
  - [   0.0009835879318416,  0.0009263812680729,  0.0054367547854781 ]
  - [   0.0010172575712204,  0.0009305665735155,  0.0054187299683690 ]
  - [   0.0010280082933605,  0.0007695259992033,  0.0053937742486596 ]
  - [   0.0010254546068609,  0.0010795479174703,  0.0054569384083152 ]
  - [   0.0010536243207753, -0.0012414641678333, -0.0031725019216537 ]
  - [   0.0010759761789814, -0.0012385888257995,  0.0002082139253616 ]
  - [  -0.0003146546077915, -0.0012403678847477, -0.0014958083629608 ]
  - [  -0.0002821187372319, -0.0012287776917219, -0.0013707429170609 ]
  - [  -0.0002813715836965, -0.0012579597532749, -0.0016270130872726 ]
  - [  -0.0003717978834175, -0.0012418497353792, -0.0014964714646339 ]
  - [  -0.0002814169274643, -0.0012526996433735, -0.0013715177774429 ]
  - [  -0.0002792508457787, -0.0012257006019354, -0.0016270950436592 ]
  - [  -0.0003716393548530, -0.0012410003691912, -0.0014960616827011 ]
  - [  -0.0006480171578005,  0.0008376470068470, -0.0005419254302979 ]
  - [  -0.0007632088381797,  0.0008113251533359, -0.0005368934944272 ]
  - [  -0.0007639103569090,  0.0008542286232114, -0.0005546454340219 ]
  - [  -0.0006463851896115,  0.0008328417316079, -0.0005421051755548 ]
  - [  -0.0007622058037668,  0.0008542946306989, -0.0005362862721086 ]
  - [  -0.0007620538235642,  0.0008148150518537, -0.0005542840808630 ]
  - [  -0.0008284086943604,  0.0008316694293171, -0.0005392767488956 ]
  - [  -0.0014052370097488,  0.0008369392016903, -0.0000952826812863 ]
  - [  -0.0014058826491237,  0.0008350423304364, -0.0009983247146010 ]
  - [   0.0005002454272471,  0.0003181256470270, -0.0072042490355670 ]
  - [   0.0004875039740000,  0.0003233773750253, -0.0071929590776563 ]
  - [   0.0004994018818252,  0.0003226032422390, -0.0071863494813442 ]
  - [   0.0004983008257113,  0.0003228111891076, -0.0071956031024456 ]
  - [   0.0004909666022286,  0.0003198899794370, -0.0071928594261408 ]
  - [   0.0004972114111297,  0.0003217521007173, -0.0071951663121581 ]
  - [   0.0004952318267897,  0.0003233208844904, -0.0072209220379591 ]
  - [   0.0004828867386095,  0.0003212369047105, -0.0071764248423278 ]
  - [   0.0005094177904539,  0.0003204642562196, -0.0071869124658406 ]
  - [   0.0007326576160267, -0.0006349701434374, -0.0101049616932869 ]
  - [   0.0007387512596324, -0.0006617483450100, -0.0100333020091057 ]
  - [   0.0006999857141636, -0.0006468347273767, -0.0100731849670410 ]
  - [   0.0006889740470797, -0.0006465363549069, -0.0100438669323921 ]
  - [   0.0006893555982970, -0.0006459826836362, -0.0101000815629959 ]
  - [   0.0006960059399717, -0.0006462248275056, -0.0100715458393097 ]
  - [   0.0007354236440733, -0.0006592929712497, -0.0101082995533943 ]
  - [   0.0007333067478612, -0.0006295632338151, -0.0100329145789146 ]
  - [   0.0007028191466816, -0.0006463503814302, -0.0100708752870560 ]
  - [  -0.0019730357453227, -0.0013027607928962,  0.0168981030583382 ]
  - [  -0.0017318865284324, -0.0013673340436071,  0.0170002579689026 ]
  - [  -0.0017307642847300, -0.0012192204594612,  0.0167785510420799 ]
  - [  -0.0014569526538253, -0.0012909257784486,  0.0168890208005905 ]
  - [  -0.0014962758868933, -0.0012915075058118,  0.0168888792395592 ]
  - [  -0.0014938786625862, -0.0012930479133502,  0.0168910026550293 ]
  - [  -0.0019748182967305, -0.0012809254694730,  0.0168988853693008 ]
  - [  -0.0017357403412461, -0.0012160777114332,  0.0170010253787041 ]
  - [  -0.0017323223873973, -0.0013659000396729,  0.0167768597602844 ]
  - [  -0.0006299825618044, -0.0010023772483692, -0.0188565701246262 ]
  - [  -0.0005922213313170, -0.0009751727920957, -0.0188821852207184 ]
  - [  -0.0005870666936971, -0.0010299830464646, -0.0188128389418125 ]
  - [  -0.0006039434811100, -0.0009854091331363, -0.0188390500843525 ]
  - [  -0.0006036761915311, -0.0010195678332821, -0.0188656039535999 ]
  - [  -0.0006011140649207, -0.0010025170631707, -0.0188505910336971 ]
  - [  -0.0006284786504693, -0.0010198371019214, -0.0188382267951965 ]
  - [  -0.0005908953025937, -0.0010122093372047, -0.0189014896750450 ]
  - [  -0.0005902393604629, -0.0009750198805705, -0.0188143476843834 ]
  - [   0.0018485449254513,  0.0004381507751532,  0.0229995325207710 ]
  - [   0.0015009269118309,  0.0004401700280141,  0.0228896960616112 ]
  - [   0.0015052724629641,  0.0004415450966917,  0.0231186524033546 ]
  - [   0.0017077513039112,  0.0004410259425640,  0.0230031237006187 ]
  - [   0.0017223134636879,  0.0004402063786983,  0.0230226665735245 ]
  - [   0.0017224811017513,  0.0004402957856655,  0.0229831933975220 ]
  - [   0.0017076246440411,  0.0004411116242409,  0.0229988321661949 ]
  - [   0.0017213374376297,  0.0004401318728924,  0.0230234563350677 ]
  - [   0.0017227306962013,  0.0004386492073536,  0.0229882225394249 ]
  - [  -0.0017615164397284, -0.0001182901251013,  0.0075896531343460 ]
  - [  -0.0017611994408071, -0.0000844859969220,  0.0078472793102264 ]
  - [  -0.0017441420350224, -0.0000986332161119,  0.0077181011438370 ]
  - [  -0.0017794172745198, -0.0000996740272967,  0.0077056735754013 ]
  - [  -0.0017787376418710, -0.0001003625875455,  0.0077337473630905 ]
  - [  -0.0017728707753122, -0.0001002313729259,  0.0077192261815071 ]
  - [  -0.0017579575069249, -0.0000822101501399,  0.0075900182127953 ]
  - [  -0.0017614804673940, -0.0001171063340735,  0.0078766196966171 ]
  - [  -0.0017437930218875, -0.0001008609178825,  0.0076923742890358 ]
  - [   0.0046805194579065,  0.0016997285420075,  0.0318382754921913 ]
  - [   0.0047703227028251,  0.0017011740710586,  0.0234844163060188 ]
  - [   0.0015606055967510,  0.0017006737180054,  0.0277211219072342 ]
  - [   0.0013207722222432,  0.0019386271014810,  0.0276280120015144 ]
  - [   0.0013192056212574,  0.0014582648873329,  0.0278203748166561 ]
  - [   0.0014944056747481,  0.0017004609107971,  0.0277215167880058 ]
  - [   0.0013182680122554,  0.0014620665460825,  0.0276257917284966 ]
  - [   0.0013185885036364,  0.0019437931478024,  0.0278195962309837 ]
  - [   0.0014931194018573,  0.0017017256468534,  0.0277209430932999 ]
  - [   0.0017407615669072, -0.0035321391187608, -0.0323736704885960 ]
  - [   0.0017871543532237, -0.0002619642764330, -0.0304530225694180 ]
  - [   0.0005829203873873, -0.0019329939968884, -0.0314153730869293 ]
  - [   0.0005088887992315, -0.0019331341609359, -0.0313547663390636 ]
  - [   0.0005093216896057, -0.0019329101778567, -0.0314777866005898 ]
  - [   0.0005211192183197, -0.0019326605834067, -0.0314156636595726 ]
  - [   0.0017718295566738, -0.0003015128895640, -0.0323804281651974 ]
  - [   0.0018177716992795, -0.0036352968309075, -0.0304451286792755 ]
  - [   0.0005844389088452, -0.0019316133111715, -0.0314159579575062 ]
- atom:    1
  displacement:
    [  -0.0100000000000000,  0.0000000000000000,  0.0000000000000000 ]
  forces:
  - [   0.0098112476989627,  0.0019924840889871, -0.0111330281943083 ]
  - [  -0.0009127482771873,  0.0019918791949749, -0.0111291836947203 ]
  - [  -0.0009282566606998,  0.0019918545149267, -0.0112372245639563 ]
  - [  -0.0008139535784721,  0.0019912198185921, -0.0111818127334118 ]
  - [  -0.0005249977111816,  0.0023084655404091, -0.0112166861072183 ]
  - [  -0.0005151107907295,  0.0016650743782520, -0.0111438976600766 ]
  - [  -0.0008141398429871,  0.0019916258752346, -0.0111826937645674 ]
  - [  -0.0005253329873085,  0.0016722939908504, -0.0112187145277858 ]
  - [  -0.0005152188241482,  0.0023187734186649, -0.0111435819417238 ]
  - [   0.0009472803212702,  0.0009226700640284,  0.0054222354665399 ]
  - [   0.0009346529841423,  0.0007724271854386,  0.0054506184533238 ]
  - [   0.0009352718479931,  0.0010828543454409,  0.0053961900994182 ]
  - [   0.0009831492789090,  0.0009267533314414,  0.0054245311766863 ]
  - [   0.0009805909357965,  0.0009265907574445,  0.0054359231144190 ]
  - [   0.0009824233129621,  0.0009259505895898,  0.0054106982424855 ]
  - [   0.0009464481845498,  0.0009295460768044,  0.0054232701659203 ]
  - [   0.0009375838562846,  0.0010802882025018,  0.0054543120786548 ]
  - [   0.0009374562650919,  0.0007702637813054,  0.0053919823840261 ]
  - [  -0.0018088303040713, -0.0012389012845233,  0.0002067908644676 ]
  - [  -0.0017940225079656, -0.0012415016535670, -0.0031740814447403 ]
  - [  -0.0004224462318234, -0.0012399945408106, -0.0014974176883698 ]
  - [  -0.0004561702371575, -0.0012567862868309, -0.0016263127326965 ]
  - [  -0.0004545339033939, -0.0012280233204365, -0.0013695582747459 ]
  - [  -0.0003649396239780, -0.0012418441474438, -0.0014968812465668 ]
  - [  -0.0004563737311400, -0.0012270901352167, -0.0016253218054771 ]
  - [  -0.0004555955820251, -0.0012534614652395, -0.0013699531555176 ]
  - [  -0.0003655363107100, -0.0012413524091244, -0.0014977827668190 ]
  - [  -0.0008540394483134,  0.0008325279341079, -0.0005483143031597 ]
  - [  -0.0007384321070276,  0.0008574023377150, -0.0005516139790416 ]
  - [  -0.0007389323436655,  0.0008139942656271, -0.0005339756608009 ]
  - [  -0.0008529368205927,  0.0008326174574904, -0.0005475152283907 ]
  - [  -0.0007372451946139,  0.0008142129518092, -0.0005522603169084 ]
  - [  -0.0007370596867986,  0.0008549405029044, -0.0005336701869965 ]
  - [  -0.0006720765959471,  0.0008373409509659, -0.0005456302314997 ]