# Thermal properties / unit cell (natom)

unit:
  temperature:   K
  free_energy:   kJ/mol
  entropy:       J/K/mol
  heat_capacity: J/K/mol

natom: 12   
cutoff_frequency: 0.00000
num_modes: 139392
num_integrated_modes: 139390

zero_point_energy:      33.6017161

thermal_properties:
- temperature:         0.0000000
  free_energy:        33.6017161
  entropy:             0.0000000
  heat_capacity:       0.0000000
  energy:             33.6017161

- temperature:        10.0000000
  free_energy:        33.5962835
  entropy:             2.3348366
  heat_capacity:       7.8245617
  energy:             33.6196319

- temperature:        20.0000000
  free_energy:        33.5077051
  entropy:            17.6688131
  heat_capacity:      42.6905455
  energy:             33.8610814

- temperature:        30.0000000
  free_energy:        33.2141478
  entropy:            41.7278828
  heat_capacity:      76.7189209
  energy:             34.4659843

- temperature:        40.0000000
  free_energy:        32.6683174
  entropy:            67.4089611
  heat_capacity:     101.8001816
  energy:             35.3646758

- temperature:        50.0000000
  free_energy:        31.8687074
  entropy:            92.3267030
  heat_capacity:     121.7265744
  energy:             36.4850426

- temperature:        60.0000000
  free_energy:        30.8256249
  entropy:           116.1035282
  heat_capacity:     139.3745126
  energy:             37.7918366

- temperature:        70.0000000
  free_energy:        29.5501373
  entropy:           138.8298705
  heat_capacity:     155.7043840
  energy:             39.2682282

- temperature:        80.0000000
  free_energy:        28.0521381
  entropy:           160.6212475
  heat_capacity:     170.8033187
  energy:             40.9018379

- temperature:        90.0000000
  free_energy:        26.3405951
  entropy:           181.5467218
  heat_capacity:     184.5560627
  energy:             42.6798000

- temperature:       100.0000000
  free_energy:        24.4239678
  entropy:           201.6425514
  heat_capacity:     196.8911094
  energy:             44.5882230

- temperature:       110.0000000
  free_energy:        22.3104321
  entropy:           220.9319385
  heat_capacity:     207.8253651
  energy:             46.6129454

- temperature:       120.0000000
  free_energy:        20.0079452
  entropy:           239.4366128
  heat_capacity:     217.4433488
  energy:             48.7403387

- temperature:       130.0000000
  free_energy:        17.5242329
  entropy:           257.1815036
  heat_capacity:     225.8665601
  energy:             50.9578284

- temperature:       140.0000000
  free_energy:        14.8667514
  entropy:           274.1956082
  heat_capacity:     233.2296869
  energy:             53.2541366

- temperature:       150.0000000
  free_energy:        12.0426493
  entropy:           290.5112250
  heat_capacity:     239.6657478
  energy:             55.6193331

- temperature:       160.0000000
  free_energy:         9.0587408
  entropy:           306.1627087
  heat_capacity:     245.2981641
  energy:             58.0447742

- temperature:       170.0000000
  free_energy:         5.9214915
  entropy:           321.1852678
  heat_capacity:     250.2373288
  energy:             60.5229871

- temperature:       180.0000000
  free_energy:         2.6370148
  entropy:           335.6139915
  heat_capacity:     254.5798001
  energy:             63.0475333

- temperature:       190.0000000
  free_energy:        -0.7889232
  entropy:           349.4831385
  heat_capacity:     258.4088871
  energy:             65.6128731

- temperature:       200.0000000
  free_energy:        -4.3508927
  entropy:           362.8256564
  heat_capacity:     261.7958829
  energy:             68.2142386

- temperature:       210.0000000
  free_energy:        -8.0437856
  entropy:           375.6728864
  heat_capacity:     264.8015213
  energy:             70.8475206

- temperature:       220.0000000
  free_energy:       -11.8627983
  entropy:           388.0544047
  heat_capacity:     267.4774323
  energy:             73.5091708

- temperature:       230.0000000
  free_energy:       -15.8034140
  entropy:           399.9979613
  heat_capacity:     269.8674896
  energy:             76.1961171

- temperature:       240.0000000
  free_energy:       -19.8613843
  entropy:           411.5294873
  heat_capacity:     272.0090030
  energy:             78.9056927

- temperature:       250.0000000
  free_energy:       -24.0327110
  entropy:           422.6731447
  heat_capacity:     273.9337505
  energy:             81.6355751

- temperature:       260.0000000
  free_energy:       -28.3136293
  entropy:           433.4514051
  heat_capacity:     275.6688552
  energy:             84.3837360

- temperature:       270.0000000
  free_energy:       -32.7005909
  entropy:           443.8851434
  heat_capacity:     277.2375248
  energy:             87.1483978

- temperature:       280.0000000
  free_energy:       -37.1902485
  entropy:           453.9937390
  heat_capacity:     278.6596711
  energy:             89.9279984

- temperature:       290.0000000
  free_energy:       -41.7794420
  entropy:           463.7951799
  heat_capacity:     279.9524271
  energy:             92.7211602

- temperature:       300.0000000
  free_energy:       -46.4651841
  entropy:           473.3061641
  heat_capacity:     281.1305791
  energy:             95.5266651

- temperature:       310.0000000
  free_energy:       -51.2446489
  entropy:           482.5421984
  heat_capacity:     282.2069262
  energy:             98.3434326

- temperature:       320.0000000
  free_energy:       -56.1151597
  entropy:           491.5176913
  heat_capacity:     283.1925807
  energy:            101.1705015

- temperature:       330.0000000
  free_energy:       -61.0741790
  entropy:           500.2460403
  heat_capacity:     284.0972194
  energy:            104.0070143

- temperature:       340.0000000
  free_energy:       -66.1192983
  entropy:           508.7397132
  heat_capacity:     284.9292939
  energy:            106.8522041

- temperature:       350.0000000
  free_energy:       -71.2482298
  entropy:           517.0103225
  heat_capacity:     285.6962067
  energy:            109.7053831

- temperature:       360.0000000
  free_energy:       -76.4587974
  entropy:           525.0686951
  heat_capacity:     286.4044601
  energy:            112.5659328

- temperature:       370.0000000
  free_energy:       -81.7489300
  entropy:           532.9249349
  heat_capacity:     287.0597813
  energy:            115.4332959

- temperature:       380.0000000
  free_energy:       -87.1166539
  entropy:           540.5884811
  heat_capacity:     287.6672281
  energy:            118.3069689

- temperature:       390.0000000
  free_energy:       -92.5600868
  entropy:           548.0681607
  heat_capacity:     288.2312789
  energy:            121.1864959

- temperature:       400.0000000
  free_energy:       -98.0774318
  entropy:           555.3722374
  heat_capacity:     288.7559092
  energy:            124.0714632

- temperature:       410.0000000
  free_energy:      -103.6669720
  entropy:           562.5084550
  heat_capacity:     289.2446563
  energy:            126.9614945

- temperature:       420.0000000
  free_energy:      -109.3270656
  entropy:           569.4840782
  heat_capacity:     289.7006754
  energy:            129.8562472

- temperature:       430.0000000
  free_energy:      -115.0561411
  entropy:           576.3059289
  heat_capacity:     290.1267873
  energy:            132.7554084

- temperature:       440.0000000
  free_energy:      -120.8526931
  entropy:           582.9804200
  heat_capacity:     290.5255191
  energy:            135.6586917

- temperature:       450.0000000
  free_energy:      -126.7152784
  entropy:           589.5135856
  heat_capacity:     290.8991401
  energy:            138.5658351

- temperature:       460.0000000
  free_energy:      -132.6425127
  entropy:           595.9111094
  heat_capacity:     291.2496919
  energy:            141.4765977

- temperature:       470.0000000
  free_energy:      -138.6330664
  entropy:           602.1783501
  heat_capacity:     291.5790152
  energy:            144.3907582

- temperature:       480.0000000
  free_energy:      -144.6856623
  entropy:           608.3203647
  heat_capacity:     291.8887726
  energy:            147.3081128

- temperature:       490.0000000
  free_energy:      -150.7990722
  entropy:           614.3419299
  heat_capacity:     292.1804688
  energy:            150.2284734

- temperature:       500.0000000
  free_energy:      -156.9721145
  entropy:           620.2475619
  heat_capacity:     292.4554681
  energy:            153.1516665

- temperature:       510.0000000
  free_energy:      -163.2036513
  entropy:           626.0415344
  heat_capacity:     292.7150094
  energy:            156.0775313

- temperature:       520.0000000
  free_energy:      -169.4925865
  entropy:           631.7278950
  heat_capacity:     292.9602201
  energy:            159.0059189

- temperature:       530.0000000
  free_energy:      -175.8378633
  entropy:           637.3104804
  heat_capacity:     293.1921273
  energy:            161.9366913

- temperature:       540.0000000
  free_energy:      -182.2384623
  entropy:           642.7929307
  heat_capacity:     293.4116685
  energy:            164.8697203

- temperature:       550.0000000
  free_energy:      -188.6933996
  entropy:           648.1787018
  heat_capacity:     293.6197009
  energy:            167.8048864

- temperature:       560.0000000
  free_energy:      -195.2017250
  entropy:           653.4710778
  heat_capacity:     293.8170092
  energy:            170.7420785

- temperature:       570.0000000
  free_energy:      -201.7625203
  entropy:           658.6731816
  heat_capacity:     294.0043126
  energy:            173.6811932

- temperature:       580.0000000
  free_energy:      -208.3748977
  entropy:           663.7879851
  heat_capacity:     294.1822718
  energy:            176.6221336

- temperature:       590.0000000
  free_energy:      -215.0379985
  entropy:           668.8183186
  heat_capacity:     294.3514939
  energy:            179.5648095

- temperature:       600.0000000
  free_energy:      -221.7509915
  entropy:           673.7668796
  heat_capacity:     294.5125381
  energy:            182.5091363

- temperature:       610.0000000
  free_energy:      -228.5130721
  entropy:           678.6362407
  heat_capacity:     294.6659196
  energy:            185.4550347

- temperature:       620.0000000
  free_energy:      -235.3234605
  entropy:           683.4288568
  heat_capacity:     294.8121142
  energy:            188.4024307

- temperature:       630.0000000
  free_energy:      -242.1814012
  entropy:           688.1470726
  heat_capacity:     294.9515612
  energy:            191.3512545

- temperature:       640.0000000
  free_energy:      -249.0861614
  entropy:           692.7931285
  heat_capacity:     295.0846673
  energy:            194.3014408

- temperature:       650.0000000
  free_energy:      -256.0370304
  entropy:           697.3691668
  heat_capacity:     295.2118090
  energy:            197.2529280

- temperature:       660.0000000
  free_energy:      -263.0333182
  entropy:           701.8772371
  heat_capacity:     295.3333357
  energy:            200.2056583

- temperature:       670.0000000
  free_energy:      -270.0743551
  entropy:           706.3193018
  heat_capacity:     295.4495715
  energy:            203.1595771

- temperature:       680.0000000
  free_energy:      -277.1594905
  entropy:           710.6972406
  heat_capacity:     295.5608175
  energy:            206.1146331

- temperature:       690.0000000
  free_energy:      -284.2880922
  entropy:           715.0128550
  heat_capacity:     295.6673540
  energy:            209.0707777

- temperature:       700.0000000
  free_energy:      -291.4595456
  entropy:           719.2678728
  heat_capacity:     295.7694419
  energy:            212.0279653

- temperature:       710.0000000
  free_energy:      -298.6732532
  entropy:           723.4639518
  heat_capacity:     295.8673242
  energy:            214.9861526

- temperature:       720.0000000
  free_energy:      -305.9286335
  entropy:           727.6026834
  heat_capacity:     295.9612279
  energy:            217.9452985

- temperature:       730.0000000
  free_energy:      -313.2251208
  entropy:           731.6855964
  heat_capacity:     296.0513648
  energy:            220.9053646

- temperature:       740.0000000
  free_energy:      -320.5621643
  entropy:           735.7141598
  heat_capacity:     296.1379328
  energy:            223.8663139

- temperature:       750.0000000
  free_energy:      -327.9392276
  entropy:           739.6897860
  heat_capacity:     296.2211171
  energy:            226.8281119

- temperature:       760.0000000
  free_energy:      -335.3557881
  entropy:           743.6138338
  heat_capacity:     296.3010911
  energy:            229.7907256

- temperature:       770.0000000
  free_energy:      -342.8113367
  entropy:           747.4876107
  heat_capacity:     296.3780172
  energy:            232.7541236

- temperature:       780.0000000
  free_energy:      -350.3053769
  entropy:           751.3123759
  heat_capacity:     296.4520479
  energy:            235.7182763

- temperature:       790.0000000
  free_energy:      -357.8374249
  entropy:           755.0893421
  heat_capacity:     296.5233260
  energy:            238.6831554

- temperature:       800.0000000
  free_energy:      -365.4070084
  entropy:           758.8196780
  heat_capacity:     296.5919859
  energy:            241.6487341

- temperature:       810.0000000
  free_energy:      -373.0136668
  entropy:           762.5045106
  heat_capacity:     296.6581538
  energy:            244.6149868

- temperature:       820.0000000
  free_energy:      -380.6569505
  entropy:           766.1449265
  heat_capacity:     296.7219485
  energy:            247.5818892

- temperature:       830.0000000
  free_energy:      -388.3364207
  entropy:           769.7419746
  heat_capacity:     296.7834816
  energy:            250.5494182

- temperature:       840.0000000
  free_energy:      -396.0516488
  entropy:           773.2966673
  heat_capacity:     296.8428587
  energy:            253.5175517

- temperature:       850.0000000
  free_energy:      -403.8022162
  entropy:           776.8099820
  heat_capacity:     296.9001787
  energy:            256.4862685

- temperature:       860.0000000
  free_energy:      -411.5877137
  entropy:           780.2828633
  heat_capacity:     296.9555355
  energy:            259.4555487

- temperature:       870.0000000
  free_energy:      -419.4077417
  entropy:           783.7162238
  heat_capacity:     297.0090174
  energy:            262.4253730

- temperature:       880.0000000
  free_energy:      -427.2619094
  entropy:           787.1109460
  heat_capacity:     297.0607079
  energy:            265.3957231

- temperature:       890.0000000
  free_energy:      -435.1498347
  entropy:           790.4678833
  heat_capacity:     297.1106858
  energy:            268.3665815

- temperature:       900.0000000
  free_energy:      -443.0711438
  entropy:           793.7878613
  heat_capacity:     297.1590257
  energy:            271.3379313

- temperature:       910.0000000
  free_energy:      -451.0254714
  entropy:           797.0716792
  heat_capacity:     297.2057984
  energy:            274.3097567

- temperature:       920.0000000
  free_energy:      -459.0124595
  entropy:           800.3201106
  heat_capacity:     297.2510705
  energy:            277.2820423

- temperature:       930.0000000
  free_energy:      -467.0317581
  entropy:           803.5339048
  heat_capacity:     297.2949055
  energy:            280.2547734

- temperature:       940.0000000
  free_energy:      -475.0830245
  entropy:           806.7137876
  heat_capacity:     297.3373634
  energy:            283.2279358

- temperature:       950.0000000
  free_energy:      -483.1659232
  entropy:           809.8604625
  heat_capacity:     297.3785011
  energy:            286.2015162

- temperature:       960.0000000
  free_energy:      -491.2801254
  entropy:           812.9746115
  heat_capacity:     297.4183727
  energy:            289.1755016

- temperature:       970.0000000
  free_energy:      -499.4253092
  entropy:           816.0568957
  heat_capacity:     297.4570294
  energy:            292.1498796

- temperature:       980.0000000
  free_energy:      -507.6011592
  entropy:           819.1079567
  heat_capacity:     297.4945201
  energy:            295.1246383

- temperature:       990.0000000
  free_energy:      -515.8073663
  entropy:           822.1284168
  heat_capacity:     297.5308910
  energy:            298.0997663

- temperature:      1000.0000000
  free_energy:      -524.0436276
  entropy:           825.1188801
  heat_capacity:     297.5661861
  energy:            301.0752526
