phonopy:
  version: "2.37.1"
  frequency_unit_conversion_factor: 15.633302
  symmetry_tolerance: 1.00000e-05

space_group:
  type: "Fm-3m"
  number: 225
  Hall_symbol: "-F 4 2 3"

primitive_matrix:
- [  0.000000000000000,  1.000000000000000, -0.000000000000000 ]
- [  0.000000000000000,  0.000000000000000,  1.000000000000000 ]
- [  1.000000000000000,  0.000000000000000,  0.000000000000000 ]

supercell_matrix:
- [   4,   0,   0 ]
- [   0,   4,   0 ]
- [   0,   0,   4 ]

primitive_cell:
  lattice:
  - [     1.527311755000001,     0.881793852885730,     2.494089651936449 ] # a
  - [     3.054623510000000,     0.000000000000000,     0.000000000000000 ] # b
  - [     1.527311755000000,     2.645381558657189,     0.000000000000000 ] # c
  points:
  - symbol: Li # 1
    coordinates: [  0.000000000000000,  0.000000000000000,  0.000000000000000 ]
    mass: 6.940000
  reciprocal_lattice: # without 2pi
  - [     0.000000000000000,     0.000000000000000,     0.400947896649820 ] # a*
  - [     0.327372586744741,    -0.189008651082380,    -0.133649298883273 ] # b*
  - [     0.000000000000000,     0.378017302164761,    -0.133649298883273 ] # c*

unit_cell:
  lattice:
  - [     3.054623510000000,     0.000000000000000,     0.000000000000000 ] # a
  - [     1.527311755000001,     2.645381558657188,     0.000000000000000 ] # b
  - [     1.527311755000001,     0.881793852885730,     2.494089651936449 ] # c
  points:
  - symbol: Li # 1
    coordinates: [  0.000000000000000,  0.000000000000000,  0.000000000000000 ]
    mass: 6.940000
    reduced_to: 1

supercell:
  lattice:
  - [    12.218494040000000,     0.000000000000000,     0.000000000000000 ] # a
  - [     6.109247020000003,    10.581526234628754,     0.000000000000000 ] # b
  - [     6.109247020000004,     3.527175411542919,     9.976358607745794 ] # c
  points:
  - symbol: Li # 1
    coordinates: [  0.000000000000000,  0.000000000000000,  0.000000000000000 ]
    mass: 6.940000
    reduced_to: 1
  - symbol: Li # 2
    coordinates: [  0.250000000000000,  0.000000000000000,  0.000000000000000 ]
    mass: 6.940000
    reduced_to: 1
  - symbol: Li # 3
    coordinates: [  0.500000000000000,  0.000000000000000,  0.000000000000000 ]
    mass: 6.940000
    reduced_to: 1
  - symbol: Li # 4
    coordinates: [  0.750000000000000,  0.000000000000000,  0.000000000000000 ]
    mass: 6.940000
    reduced_to: 1
  - symbol: Li # 5
    coordinates: [  0.000000000000000,  0.250000000000000,  0.000000000000000 ]
    mass: 6.940000
    reduced_to: 1
  - symbol: Li # 6
    coordinates: [  0.250000000000000,  0.250000000000000,  0.000000000000000 ]
    mass: 6.940000
    reduced_to: 1
  - symbol: Li # 7
    coordinates: [  0.500000000000000,  0.250000000000000,  0.000000000000000 ]
    mass: 6.940000
    reduced_to: 1
  - symbol: Li # 8
    coordinates: [  0.750000000000000,  0.250000000000000,  0.000000000000000 ]
    mass: 6.940000
    reduced_to: 1
  - symbol: Li # 9
    coordinates: [  0.000000000000000,  0.500000000000000,  0.000000000000000 ]
    mass: 6.940000
    reduced_to: 1
  - symbol: Li # 10
    coordinates: [  0.250000000000000,  0.500000000000000,  0.000000000000000 ]
    mass: 6.940000
    reduced_to: 1
  - symbol: Li # 11
    coordinates: [  0.500000000000000,  0.500000000000000,  0.000000000000000 ]
    mass: 6.940000
    reduced_to: 1
  - symbol: Li # 12
    coordinates: [  0.750000000000000,  0.500000000000000,  0.000000000000000 ]
    mass: 6.940000
    reduced_to: 1
  - symbol: Li # 13
    coordinates: [  0.000000000000000,  0.750000000000000,  0.000000000000000 ]
    mass: 6.940000
    reduced_to: 1
  - symbol: Li # 14
    coordinates: [  0.250000000000000,  0.750000000000000,  0.000000000000000 ]
    mass: 6.940000
    reduced_to: 1
  - symbol: Li # 15
    coordinates: [  0.500000000000000,  0.750000000000000,  0.000000000000000 ]
    mass: 6.940000
    reduced_to: 1
  - symbol: Li # 16
    coordinates: [  0.750000000000000,  0.750000000000000,  0.000000000000000 ]
    mass: 6.940000
    reduced_to: 1
  - symbol: Li # 17
    coordinates: [  0.000000000000000,  0.000000000000000,  0.250000000000000 ]
    mass: 6.940000
    reduced_to: 1
  - symbol: Li # 18
    coordinates: [  0.250000000000000,  0.000000000000000,  0.250000000000000 ]
    mass: 6.940000
    reduced_to: 1
  - symbol: Li # 19
    coordinates: [  0.500000000000000,  0.000000000000000,  0.250000000000000 ]
    mass: 6.940000
    reduced_to: 1
  - symbol: Li # 20
    coordinates: [  0.750000000000000,  0.000000000000000,  0.250000000000000 ]
    mass: 6.940000
    reduced_to: 1
  - symbol: Li # 21
    coordinates: [  0.000000000000000,  0.250000000000000,  0.250000000000000 ]
    mass: 6.940000
    reduced_to: 1
  - symbol: Li # 22
    coordinates: [  0.250000000000000,  0.250000000000000,  0.250000000000000 ]
    mass: 6.940000
    reduced_to: 1
  - symbol: Li # 23
    coordinates: [  0.500000000000000,  0.250000000000000,  0.250000000000000 ]
    mass: 6.940000
    reduced_to: 1
  - symbol: Li # 24
    coordinates: [  0.750000000000000,  0.250000000000000,  0.250000000000000 ]
    mass: 6.940000
    reduced_to: 1
  - symbol: Li # 25
    coordinates: [  0.000000000000000,  0.500000000000000,  0.250000000000000 ]
    mass: 6.940000
    reduced_to: 1
  - symbol: Li # 26
    coordinates: [  0.250000000000000,  0.500000000000000,  0.250000000000000 ]
    mass: 6.940000
    reduced_to: 1
  - symbol: Li # 27
    coordinates: [  0.500000000000000,  0.500000000000000,  0.250000000000000 ]
    mass: 6.940000
    reduced_to: 1
  - symbol: Li # 28
    coordinates: [  0.750000000000000,  0.500000000000000,  0.250000000000000 ]
    mass: 6.940000
    reduced_to: 1
  - symbol: Li # 29
    coordinates: [  0.000000000000000,  0.750000000000000,  0.250000000000000 ]
    mass: 6.940000
    reduced_to: 1
  - symbol: Li # 30
    coordinates: [  0.250000000000000,  0.750000000000000,  0.250000000000000 ]
    mass: 6.940000
    reduced_to: 1
  - symbol: Li # 31
    coordinates: [  0.500000000000000,  0.750000000000000,  0.250000000000000 ]
    mass: 6.940000
    reduced_to: 1
  - symbol: Li # 32
    coordinates: [  0.750000000000000,  0.750000000000000,  0.250000000000000 ]
    mass: 6.940000
    reduced_to: 1
  - symbol: Li # 33
    coordinates: [  0.000000000000000,  0.000000000000000,  0.500000000000000 ]
    mass: 6.940000
    reduced_to: 1
  - symbol: Li # 34
    coordinates: [  0.250000000000000,  0.000000000000000,  0.500000000000000 ]
    mass: 6.940000
    reduced_to: 1
  - symbol: Li # 35
    coordinates: [  0.500000000000000,  0.000000000000000,  0.500000000000000 ]
    mass: 6.940000
    reduced_to: 1
  - symbol: Li # 36
    coordinates: [  0.750000000000000,  0.000000000000000,  0.500000000000000 ]
    mass: 6.940000
    reduced_to: 1
  - symbol: Li # 37
    coordinates: [  0.000000000000000,  0.250000000000000,  0.500000000000000 ]
    mass: 6.940000
    reduced_to: 1
  - symbol: Li # 38
    coordinates: [  0.250000000000000,  0.250000000000000,  0.500000000000000 ]
    mass: 6.940000
    reduced_to: 1
  - symbol: Li # 39
    coordinates: [  0.500000000000000,  0.250000000000000,  0.500000000000000 ]
    mass: 6.940000
    reduced_to: 1
  - symbol: Li # 40
    coordinates: [  0.750000000000000,  0.250000000000000,  0.500000000000000 ]
    mass: 6.940000
    reduced_to: 1
  - symbol: Li # 41
    coordinates: [  0.000000000000000,  0.500000000000000,  0.500000000000000 ]
    mass: 6.940000
    reduced_to: 1
  - symbol: Li # 42
    coordinates: [  0.250000000000000,  0.500000000000000,  0.500000000000000 ]
    mass: 6.940000
    reduced_to: 1
  - symbol: Li # 43
    coordinates: [  0.500000000000000,  0.500000000000000,  0.500000000000000 ]
    mass: 6.940000
    reduced_to: 1
  - symbol: Li # 44
    coordinates: [  0.750000000000000,  0.500000000000000,  0.500000000000000 ]
    mass: 6.940000
    reduced_to: 1
  - symbol: Li # 45
    coordinates: [  0.000000000000000,  0.750000000000000,  0.500000000000000 ]
    mass: 6.940000
    reduced_to: 1
  - symbol: Li # 46
    coordinates: [  0.250000000000000,  0.750000000000000,  0.500000000000000 ]
    mass: 6.940000
    reduced_to: 1
  - symbol: Li # 47
    coordinates: [  0.500000000000000,  0.750000000000000,  0.500000000000000 ]
    mass: 6.940000
    reduced_to: 1
  - symbol: Li # 48
    coordinates: [  0.750000000000000,  0.750000000000000,  0.500000000000000 ]
    mass: 6.940000
    reduced_to: 1
  - symbol: Li # 49
    coordinates: [  0.000000000000000,  0.000000000000000,  0.750000000000000 ]
    mass: 6.940000
    reduced_to: 1
  - symbol: Li # 50
    coordinates: [  0.250000000000000,  0.000000000000000,  0.750000000000000 ]
    mass: 6.940000
    reduced_to: 1
  - symbol: Li # 51
    coordinates: [  0.500000000000000,  0.000000000000000,  0.750000000000000 ]
    mass: 6.940000
    reduced_to: 1
  - symbol: Li # 52
    coordinates: [  0.750000000000000,  0.000000000000000,  0.750000000000000 ]
    mass: 6.940000
    reduced_to: 1
  - symbol: Li # 53
    coordinates: [  0.000000000000000,  0.250000000000000,  0.750000000000000 ]
    mass: 6.940000
    reduced_to: 1
  - symbol: Li # 54
    coordinates: [  0.250000000000000,  0.250000000000000,  0.750000000000000 ]
    mass: 6.940000
    reduced_to: 1
  - symbol: Li # 55
    coordinates: [  0.500000000000000,  0.250000000000000,  0.750000000000000 ]
    mass: 6.940000
    reduced_to: 1
  - symbol: Li # 56
    coordinates: [  0.750000000000000,  0.250000000000000,  0.750000000000000 ]
    mass: 6.940000
    reduced_to: 1
  - symbol: Li # 57
    coordinates: [  0.000000000000000,  0.500000000000000,  0.750000000000000 ]
    mass: 6.940000
    reduced_to: 1
  - symbol: Li # 58
    coordinates: [  0.250000000000000,  0.500000000000000,  0.750000000000000 ]
    mass: 6.940000
    reduced_to: 1
  - symbol: Li # 59
    coordinates: [  0.500000000000000,  0.500000000000000,  0.750000000000000 ]
    mass: 6.940000
    reduced_to: 1
  - symbol: Li # 60
    coordinates: [  0.750000000000000,  0.500000000000000,  0.750000000000000 ]
    mass: 6.940000
    reduced_to: 1
  - symbol: Li # 61
    coordinates: [  0.000000000000000,  0.750000000000000,  0.750000000000000 ]
    mass: 6.940000
    reduced_to: 1
  - symbol: Li # 62
    coordinates: [  0.250000000000000,  0.750000000000000,  0.750000000000000 ]
    mass: 6.940000
    reduced_to: 1
  - symbol: Li # 63
    coordinates: [  0.500000000000000,  0.750000000000000,  0.750000000000000 ]
    mass: 6.940000
    reduced_to: 1
  - symbol: Li # 64
    coordinates: [  0.750000000000000,  0.750000000000000,  0.750000000000000 ]
    mass: 6.940000
    reduced_to: 1

displacements:
- atom:    1
  displacement:
    [   0.0100000000000000,  0.0000000000000000,  0.0000000000000000 ]
  forces:
  - [  -0.0109539050608873,  0.0000001331936801, -0.0000001781154424 ]
  - [   0.0032575447112322,  0.0000004220637493,  0.0000001135558705 ]
  - [   0.0000711353495717,  0.0000003425084287,  0.0000000417931005 ]
  - [   0.0031788833439350,  0.0000004712492228,  0.0000000502332114 ]
  - [   0.0007720065768808,  0.0014153588563204,  0.0000346014276147 ]
  - [  -0.0000789212062955, -0.0000701686367393, -0.0000084030180005 ]
  - [  -0.0000771936029196,  0.0000686244311510,  0.0000086356449174 ]
  - [   0.0007757876883261, -0.0014072358608246, -0.0000343832798535 ]
  - [  -0.0000169705599546,  0.0000506470823893, -0.0000088448869064 ]
  - [   0.0000418694689870,  0.0000000204890966,  0.0000004125759006 ]
  - [  -0.0000168997794390, -0.0000505984353367,  0.0000086576328613 ]
  - [   0.0000418665003963,  0.0000004961257218, -0.0000004351459211 ]
  - [   0.0007767062634230,  0.0014065648429096,  0.0000341306949849 ]
  - [   0.0007714862003922, -0.0014157105470076, -0.0000345622975146 ]
  - [  -0.0000786138698459,  0.0000697812065482,  0.0000085366045823 ]
  - [  -0.0000772047787905, -0.0000689844600856, -0.0000084349157987 ]
  - [   0.0007719369605184,  0.0005047954618931,  0.0013225944712758 ]
  - [  -0.0000789565965533, -0.0000311294570565, -0.0000634323805571 ]
  - [  -0.0000772299245000,  0.0000312011688948,  0.0000617466866970 ]
  - [   0.0007757814601064, -0.0005012406036258, -0.0013154027983546 ]
  - [  -0.0000670216977596, -0.0000377716496587, -0.0000266293063760 ]
  - [   0.0000504652562086,  0.0000004135072231,  0.0000004116445780 ]
  - [  -0.0000674072653055,  0.0000376170501113,  0.0000267270952463 ]
  - [   0.0001700101420283,  0.0000005606561899,  0.0000005252659321 ]
  - [  -0.0000118128955364, -0.0000069234520197,  0.0000361791171599 ]
  - [  -0.0000132266432047,  0.0000056689605117, -0.0000358587130904 ]
  - [   0.0000111842527986, -0.0000525889918208,  0.0000217463821173 ]
  - [   0.0000110035762191,  0.0000529498938704, -0.0000218963541556 ]
  - [  -0.0000978621683316,  0.0000044633634388, -0.0000069262459874 ]
  - [  -0.0003458335995674,  0.0002990164794028, -0.0004231836646795 ]
  - [   0.0001020804047585, -0.0000006435438991,  0.0000004768371582 ]
  - [  -0.0003463229222689, -0.0002968045882881,  0.0004197163507342 ]
  - [  -0.0000168755650520,  0.0000090384855866,  0.0000505829229951 ]
  - [   0.0000419410207542,  0.0000006472691894, -0.0000003529712558 ]
  - [  -0.0000169100239873, -0.0000082114711404, -0.0000507179647684 ]
  - [   0.0000418511626776,  0.0000002020969987,  0.0000004004687071 ]
  - [  -0.0000118939206004,  0.0000315872021019, -0.0000188415870070 ]
  - [  -0.0000132154673338, -0.0000319061800838,  0.0000172797590494 ]
  - [   0.0000111544504762,  0.0000026235356927, -0.0000570304691792 ]
  - [   0.0000110371038318, -0.0000033238902688,  0.0000570621341467 ]
  - [  -0.0000322097912431,  0.0000002272427082, -0.0000000875443220 ]
  - [   0.0000155147317855,  0.0000002337619662,  0.0000000214204192 ]
  - [  -0.0000047944486141,  0.0000003315508366,  0.0000000083819032 ]
  - [   0.0000157371541718,  0.0000003539025784,  0.0000000344589353 ]
  - [  -0.0000133076682687,  0.0000313404016197, -0.0000173086300492 ]
  - [   0.0000110961564133, -0.0000033411197364,  0.0000573787838221 ]
  - [   0.0000109644606709,  0.0000024926848710, -0.0000567547976971 ]
  - [  -0.0000118920579553, -0.0000323611311615,  0.0000190632417798 ]
  - [   0.0007765386253595,  0.0005010943859816,  0.0013151692692190 ]
  - [   0.0007715169340372, -0.0005045896396041, -0.0013229664182290 ]
  - [  -0.0000785868614912,  0.0000313129276037,  0.0000632263254374 ]
  - [  -0.0000772001221776, -0.0000309273600578, -0.0000619096681476 ]
  - [  -0.0000978624448180, -0.0000048838555813,  0.0000069936577347 ]
  - [  -0.0003459621220827, -0.0002989992208313,  0.0004233943182044 ]
  - [   0.0001020729541779,  0.0000004197354428, -0.0000003715831554 ]
  - [  -0.0003462601453066,  0.0002968553453684, -0.0004192343621980 ]
  - [  -0.0000130431726575, -0.0000061877071857,  0.0000358260513167 ]
  - [   0.0000111227855086,  0.0000525545328856, -0.0000218232962652 ]
  - [   0.0000109449028969, -0.0000530444085598,  0.0000217049673665 ]
  - [  -0.0000117998570204,  0.0000067371875048, -0.0000362905484508 ]
  - [  -0.0000664917752147, -0.0000374281844415, -0.0000267240975518 ]
  - [   0.0001695677638054, -0.0000001843473001, -0.0000004443281796 ]
  - [  -0.0000670682638884,  0.0000379537232220,  0.0000264822811005 ]
  - [   0.0000499207526445, -0.0000003833229130, -0.0000004949251888 ]

force_constants:
  format: "full"
  shape: [ 64, 64 ]
  elements:
  - # (1, 1)
    - [     1.095390463645172,     0.000000000000000,     0.000000000000000 ]
    - [     0.000000000000000,     1.095390463645173,    -0.000000000000000 ]
    - [     0.000000000000000,    -0.000000000000000,     1.095390463645173 ]
  - # (1, 2)
    - [    -0.321825235777020,     0.000000000000000,     0.000000000000000 ]
    - [     0.000000000000000,     0.004093531489404,    -0.003997192172673 ]
    - [     0.000000000000000,    -0.003997192172673,     0.006919973180407 ]
  - # (1, 3)
    - [    -0.007095427128079,     0.000000000000000,    -0.000000000000000 ]
    - [    -0.000000000000000,     0.004620203321671,     0.001002095241594 ]
    - [    -0.000000000000000,     0.001002095241594,     0.003911614980945 ]
  - # (1, 4)
    - [    -0.321825235777020,     0.000000000000000,     0.000000000000000 ]
    - [     0.000000000000000,     0.004093531489404,    -0.003997192172673 ]
    - [     0.000000000000000,    -0.003997192172673,     0.006919973180407 ]
  - # (1, 5)
    - [    -0.077386160327202,    -0.141126966011416,    -0.003461669965343 ]
    - [    -0.141126966011416,    -0.240345543960414,     0.001998596086337 ]
    - [    -0.003461669965343,     0.001998596086337,     0.006919973180407 ]
  - # (1, 6)
    - [     0.007802185893188,     0.006937468848303,     0.000861619425072 ]
    - [     0.006937468848303,    -0.000208513120937,     0.000497456207004 ]
    - [     0.000861619425072,     0.000497456207004,     0.002713193578367 ]
  - # (1, 7)
    - [     0.007802185893188,    -0.006937468848303,    -0.000861619425072 ]
    - [    -0.006937468848303,    -0.000208513120937,     0.000497456207004 ]
    - [    -0.000861619425072,     0.000497456207004,     0.002713193578367 ]
  - # (1, 8)
    - [    -0.077386160327202,     0.141126966011416,     0.003461669965343 ]
    - [     0.141126966011416,    -0.240345543960414,     0.001998596086337 ]
    - [     0.003461669965343,     0.001998596086337,     0.006919973180407 ]
  - # (1, 9)
    - [     0.001691295709233,    -0.005073016795417,     0.000867839936232 ]
    - [    -0.005073016795417,    -0.004166519515642,    -0.000501047620797 ]
    - [     0.000867839936232,    -0.000501047620797,     0.003911614980945 ]
  - # (1, 10)
    - [    -0.004213862627999,     0.000000000000000,    -0.000000000000000 ]
    - [    -0.000000000000000,     0.011807535400250,    -0.000994912414009 ]
    - [    -0.000000000000000,    -0.000994912414009,     0.002713193578367 ]
  - # (1, 11)
    - [     0.001691295709233,     0.005073016795417,    -0.000867839936232 ]
    - [     0.005073016795417,    -0.004166519515642,    -0.000501047620797 ]
    - [    -0.000867839936232,    -0.000501047620797,     0.003911614980945 ]
  - # (1, 12)
    - [    -0.004213862627999,     0.000000000000000,    -0.000000000000000 ]
    - [    -0.000000000000000,     0.011807535400250,    -0.000994912414009 ]
    - [    -0.000000000000000,    -0.000994912414009,     0.002713193578367 ]
  - # (1, 13)
    - [    -0.077386160327202,    -0.141126966011416,    -0.003461669965343 ]
    - [    -0.141126966011416,    -0.240345543960414,     0.001998596086337 ]
    - [    -0.003461669965343,     0.001998596086337,     0.006919973180407 ]
  - # (1, 14)
    - [    -0.077386160327202,     0.141126966011416,     0.003461669965343 ]
    - [     0.141126966011416,    -0.240345543960414,     0.001998596086337 ]
    - [     0.003461669965343,     0.001998596086337,     0.006919973180407 ]
  - # (1, 15)
    - [     0.007802185893188,    -0.006937468848303,    -0.000861619425072 ]
    - [    -0.006937468848303,    -0.000208513120937,     0.000497456207004 ]
    - [    -0.000861619425072,     0.000497456207004,     0.002713193578367 ]
  - # (1, 16)
    - [     0.007802185893188,     0.006937468848303,     0.000861619425072 ]
    - [     0.006937468848303,    -0.000208513120937,     0.000497456207004 ]
    - [     0.000861619425072,     0.000497456207004,     0.002713193578367 ]
  - # (1, 17)
    - [    -0.077386160327202,    -0.050306015746104,    -0.131901889578160 ]
    - [    -0.050306015746104,    -0.019297776861460,    -0.076153591454571 ]
    - [    -0.131901889578160,    -0.076153591454571,    -0.214127793918546 ]
  - # (1, 18)
    - [     0.007802185893188,     0.003124832200462,     0.006253501880850 ]
    - [     0.003124832200462,     0.002701230307170,    -0.000531293447759 ]
    - [     0.006253501880850,    -0.000531293447759,    -0.000196549849740 ]
  - # (1, 19)
    - [     0.007802185893188,    -0.003124832200462,    -0.006253501880850 ]
    - [    -0.003124832200462,     0.002701230307170,    -0.000531293447759 ]
    - [    -0.006253501880850,    -0.000531293447759,    -0.000196549849740 ]
  - # (1, 20)
    - [    -0.077386160327202,     0.050306015746104,     0.131901889578160 ]
    - [     0.050306015746104,    -0.019297776861460,    -0.076153591454571 ]
    - [     0.131901889578160,    -0.076153591454571,    -0.214127793918546 ]
  - # (1, 21)
    - [     0.006682653271838,     0.003771194660765,     0.002666637317801 ]
    - [     0.003771194660765,     0.003820762928520,     0.005681338215309 ]
    - [     0.002666637317801,     0.005681338215309,    -0.000196549849740 ]
  - # (1, 22)
    - [    -0.005019342886214,    -0.000000000000000,    -0.000000000000000 ]
    - [    -0.000000000000000,    -0.005019342886214,    -0.000000000000000 ]
    - [    -0.000000000000000,    -0.000000000000000,    -0.005019342886214 ]
  - # (1, 23)
    - [     0.006682653271838,    -0.003771194660765,    -0.002666637317801 ]
    - [    -0.003771194660765,     0.003820762928520,     0.005681338215309 ]
    - [    -0.002666637317801,     0.005681338215309,    -0.000196549849740 ]
  - # (1, 24)
    - [    -0.016987788539119,     0.000000000000000,     0.000000000000000 ]
    - [     0.000000000000000,     0.051814399765062,     0.048650493910360 ]
    - [     0.000000000000000,     0.048650493910360,     0.017413305612971 ]
  - # (1, 25)
    - [     0.001270285135511,     0.000646362460303,    -0.003586864563049 ]
    - [     0.000646362460303,     0.009233131064847,    -0.005150044767550 ]
    - [    -0.003586864563049,    -0.005150044767550,    -0.000196549849740 ]
  - # (1, 26)
    - [     0.001270285135511,    -0.000646362460303,     0.003586864563049 ]
    - [    -0.000646362460303,     0.009233131064847,    -0.005150044767550 ]
    - [     0.003586864563049,    -0.005150044767550,    -0.000196549849740 ]
  - # (1, 27)
    - [    -0.001094137616301,     0.005274301268700,    -0.002168311060430 ]
    - [     0.005274301268700,    -0.007184376130843,    -0.001251874974426 ]
    - [    -0.002168311060430,    -0.001251874974426,     0.000180563073741 ]
  - # (1, 28)
    - [    -0.001094137616301,    -0.005274301268700,     0.002168311060430 ]
    - [    -0.005274301268700,    -0.007184376130843,    -0.001251874974426 ]
    - [     0.002168311060430,    -0.001251874974426,     0.000180563073741 ]
  - # (1, 29)
    - [     0.009746414871411,     0.000000000000000,    -0.000000000000000 ]
    - [     0.000000000000000,    -0.106430352060072,     0.152307182909141 ]
    - [    -0.000000000000000,     0.152307182909141,    -0.214127793918546 ]
  - # (1, 30)
    - [     0.034613852689017,    -0.029792221453691,     0.042132563633032 ]
    - [    -0.029792221453691,     0.000212758536926,    -0.024325246955180 ]
    - [     0.042132563633032,    -0.024325246955180,     0.017413305612971 ]
  - # (1, 31)
    - [    -0.010229495388114,     0.000000000000000,    -0.000000000000000 ]
    - [     0.000000000000000,     0.001950981640970,     0.002503749948852 ]
    - [    -0.000000000000000,     0.002503749948852,     0.000180563073741 ]
  - # (1, 32)
    - [     0.034613852689017,     0.029792221453691,    -0.042132563633032 ]
    - [     0.029792221453691,     0.000212758536926,    -0.024325246955180 ]
    - [    -0.042132563633032,    -0.024325246955180,     0.017413305612971 ]
  - # (1, 33)
    - [     0.001691295709233,    -0.000872798259947,    -0.005072166081561 ]
    - [    -0.000872798259947,     0.002699116329890,    -0.002928416452564 ]
    - [    -0.005072166081561,    -0.002928416452564,    -0.002954020864587 ]
  - # (1, 34)
    - [    -0.004213862627999,     0.000000000000000,     0.000000000000000 ]
    - [     0.000000000000000,     0.003098334390014,     0.002084255132518 ]
    - [    -0.000000000000000,     0.002084255132518,     0.011422394588603 ]
  - # (1, 35)
    - [     0.001691295709233,     0.000872798259947,     0.005072166081561 ]
    - [     0.000872798259947,     0.002699116329890,    -0.002928416452564 ]
    - [     0.005072166081561,    -0.002928416452564,    -0.002954020864587 ]
  - # (1, 36)
    - [    -0.004213862627999,     0.000000000000000,     0.000000000000000 ]
    - [     0.000000000000000,     0.003098334390014,     0.002084255132518 ]
    - [     0.000000000000000,     0.002084255132518,     0.011422394588603 ]
  - # (1, 37)
    - [     0.001270285135511,    -0.003166274187538,     0.001805017892729 ]
    - [    -0.003166274187538,    -0.002385813373496,    -0.001042127566259 ]
    - [     0.001805017892729,    -0.001042127566259,     0.011422394588603 ]
  - # (1, 38)
    - [     0.001270285135511,     0.003166274187538,    -0.001805017892729 ]
    - [     0.003166274187538,    -0.002385813373496,    -0.001042127566259 ]
    - [    -0.001805017892729,    -0.001042127566259,     0.011422394588603 ]
  - # (1, 39)
    - [    -0.001094137616301,    -0.000286202849836,     0.005695429277635 ]
    - [    -0.000286202849836,    -0.001424616201092,    -0.003288257626593 ]
    - [     0.005695429277635,    -0.003288257626593,    -0.005579196856009 ]
  - # (1, 40)
    - [    -0.001094137616301,     0.000286202849836,    -0.005695429277635 ]
    - [     0.000286202849836,    -0.001424616201092,    -0.003288257626593 ]
    - [    -0.005695429277635,    -0.003288257626593,    -0.005579196856009 ]
  - # (1, 41)
    - [     0.003203026640218,    -0.000000000000000,    -0.000000000000000 ]
    - [    -0.000000000000000,     0.001187385398905,     0.005856832905128 ]
    - [    -0.000000000000000,     0.005856832905128,    -0.002954020864587 ]
  - # (1, 42)
    - [    -0.001589855493488,     0.000000000000000,    -0.000000000000000 ]
    - [    -0.000000000000000,    -0.000928898323905,     0.006576515253186 ]
    - [    -0.000000000000000,     0.006576515253186,    -0.005579196856009 ]
  - # (1, 43)
    - [     0.000479402417852,    -0.000000000000000,    -0.000000000000000 ]
    - [    -0.000000000000000,     0.000479402417852,    -0.000000000000000 ]
    - [    -0.000000000000000,    -0.000000000000000,     0.000479402417852 ]
  - # (1, 44)
    - [    -0.001589855493488,     0.000000000000000,     0.000000000000000 ]
    - [    -0.000000000000000,    -0.000928898323905,     0.006576515253186 ]
    - [    -0.000000000000000,     0.006576515253186,    -0.005579196856009 ]
  - # (1, 45)
    - [     0.001270285135511,    -0.003166274187538,     0.001805017892729 ]
    - [    -0.003166274187538,    -0.002385813373496,    -0.001042127566259 ]
    - [     0.001805017892729,    -0.001042127566259,     0.011422394588603 ]
  - # (1, 46)
    - [    -0.001094137616301,     0.000286202849836,    -0.005695429277635 ]
    - [     0.000286202849836,    -0.001424616201092,    -0.003288257626593 ]
    - [    -0.005695429277635,    -0.003288257626593,    -0.005579196856009 ]
  - # (1, 47)
    - [    -0.001094137616301,    -0.000286202849836,     0.005695429277635 ]
    - [    -0.000286202849836,    -0.001424616201092,    -0.003288257626593 ]
    - [     0.005695429277635,    -0.003288257626593,    -0.005579196856009 ]
  - # (1, 48)
    - [     0.001270285135511,     0.003166274187538,    -0.001805017892729 ]
    - [     0.003166274187538,    -0.002385813373496,    -0.001042127566259 ]
    - [    -0.001805017892729,    -0.001042127566259,     0.011422394588603 ]
  - # (1, 49)
    - [    -0.077386160327202,    -0.050306015746104,    -0.131901889578160 ]
    - [    -0.050306015746104,    -0.019297776861460,    -0.076153591454571 ]
    - [    -0.131901889578160,    -0.076153591454571,    -0.214127793918546 ]
  - # (1, 50)
    - [    -0.077386160327202,     0.050306015746104,     0.131901889578160 ]
    - [     0.050306015746104,    -0.019297776861460,    -0.076153591454571 ]
    - [     0.131901889578160,    -0.076153591454571,    -0.214127793918546 ]
  - # (1, 51)
    - [     0.007802185893188,    -0.003124832200462,    -0.006253501880850 ]
    - [    -0.003124832200462,     0.002701230307170,    -0.000531293447759 ]
    - [    -0.006253501880850,    -0.000531293447759,    -0.000196549849740 ]
  - # (1, 52)
    - [     0.007802185893188,     0.003124832200462,     0.006253501880850 ]
    - [     0.003124832200462,     0.002701230307170,    -0.000531293447759 ]
    - [     0.006253501880850,    -0.000531293447759,    -0.000196549849740 ]
  - # (1, 53)
    - [     0.009746414871411,     0.000000000000000,    -0.000000000000000 ]
    - [     0.000000000000000,    -0.106430352060072,     0.152307182909141 ]
    - [    -0.000000000000000,     0.152307182909141,    -0.214127793918546 ]
  - # (1, 54)
    - [     0.034613852689017,     0.029792221453691,    -0.042132563633032 ]
    - [     0.029792221453691,     0.000212758536926,    -0.024325246955180 ]
    - [    -0.042132563633032,    -0.024325246955180,     0.017413305612971 ]
  - # (1, 55)
    - [    -0.010229495388114,     0.000000000000000,    -0.000000000000000 ]
    - [     0.000000000000000,     0.001950981640970,     0.002503749948852 ]
    - [    -0.000000000000000,     0.002503749948852,     0.000180563073741 ]
  - # (1, 56)
    - [     0.034613852689017,    -0.029792221453691,     0.042132563633032 ]
    - [    -0.029792221453691,     0.000212758536926,    -0.024325246955180 ]
    - [     0.042132563633032,    -0.024325246955180,     0.017413305612971 ]
  - # (1, 57)
    - [     0.001270285135511,     0.000646362460303,    -0.003586864563049 ]
    - [     0.000646362460303,     0.009233131064847,    -0.005150044767550 ]
    - [    -0.003586864563049,    -0.005150044767550,    -0.000196549849740 ]
  - # (1, 58)
    - [    -0.001094137616301,    -0.005274301268700,     0.002168311060430 ]
    - [    -0.005274301268700,    -0.007184376130843,    -0.001251874974426 ]
    - [     0.002168311060430,    -0.001251874974426,     0.000180563073741 ]
  - # (1, 59)
    - [    -0.001094137616301,     0.005274301268700,    -0.002168311060430 ]
    - [     0.005274301268700,    -0.007184376130843,    -0.001251874974426 ]
    - [    -0.002168311060430,    -0.001251874974426,     0.000180563073741 ]
  - # (1, 60)