# Tetrahedron method
       -0.8296818394        0.0000000000
       -0.7799009506        0.0000000000
       -0.7301200618        0.0000000000
       -0.6803391729        0.0000000000
       -0.6305582841        0.0000000000
       -0.5807773953        0.0000000000
       -0.5309965065        0.0000000000
       -0.4812156176        0.0000000000
       -0.4314347288        0.0000000000
       -0.3816538400        0.0000000000
       -0.3318729511        0.0000000000
       -0.2820920623        0.0000000000
       -0.2323111735        0.0000000000
       -0.1825302847        0.0000000000
       -0.1327493958        0.0000000000
       -0.0829685070        0.0000000000
       -0.0331876182        0.0000000000
        0.0165932706        0.0002023895
        0.0663741595        0.0034507351
        0.1161550483        0.0112186392
        0.1659359371        0.0288629424
        0.2157168260        0.0509703555
        0.2654977148        0.0794606850
        0.3152786036        0.1194014852
        0.3650594924        0.1607380246
        0.4148403813        0.2087503358
        0.4646212701        0.2642466797
        0.5144021589        0.3281364586
        0.5641830478        0.4007868480
        0.6139639366        0.4813923973
        0.6637448254        0.5675106950
        0.7135257142        0.6676021659
        0.7633066031        0.7750096943
        0.8130874919        0.8944463428
        0.8628683807        1.0259387634
        0.9126492696        1.1685771539
        0.9624301584        1.3305713105
        1.0122110472        1.5082012620
        1.0619919360        1.7104756865
        1.1117728249        1.9620465575
        1.1615537137        2.2167476820
        1.2113346025        2.3825092030
        1.2611154914        2.5557795895
        1.3108963802        2.7915122409
        1.3606772690        2.9724747802
        1.4104581578        3.3417853504
        1.4602390467        3.8079607510
        1.5100199355        3.8574784264
        1.5598008243        4.4483127531
        1.6095817131        5.5184842764
        1.6593626020        9.2753273237
        1.7091434908        9.1477509910
        1.7589243796       10.2764834982
        1.8087052685        8.3086668989
        1.8584861573       11.6391647904
        1.9082670461        8.6401910979
        1.9580479349        7.6288336963
        2.0078288238        7.4231735696
        2.0576097126        6.8295502731
        2.1073906014        8.8568595478
        2.1571714903        7.7848383605
        2.2069523791        8.8491900323
        2.2567332679        9.0676016522
        2.3065141567        8.1789180297
        2.3562950456        7.3063985245
        2.4060759344        7.2228227293
        2.4558568232        7.4492815376
        2.5056377121        6.5434371615
        2.5554186009        5.3870787936
        2.6051994897        4.6672491171
        2.6549803785        4.5042198377
        2.7047612674        4.8509664965
        2.7545421562        4.9878079269
        2.8043230450        5.2218566556
        2.8541039339        5.5896919588
        2.9038848227        3.1440362522
        2.9536657115        0.8593458206
        3.0034466003        0.9391366304
        3.0532274892        2.0594908003
        3.1030083780        3.2028343060
        3.1527892668        5.5795999513
        3.2025701556       11.3076748889
        3.2523510445       15.5567525855
        3.3021319333       20.7085656098
        3.3519128221       12.6381752284
        3.4016937110       11.6201352547
        3.4514745998        4.8612887683
        3.5012554886        1.8708795017
        3.5510363774        2.2272669256
        3.6008172663        2.6229344537
        3.6505981551        2.8544560611
        3.7003790439        3.2579196601
        3.7501599328        2.9465349937
        3.7999408216        1.0763250928
        3.8497217104        1.8066760959
        3.8995025992        1.2449658613
        3.9492834881        1.4777431380
        3.9990643769        1.3573805556
        4.0488452657        1.4267159076
        4.0986261546        1.5716319042
        4.1484070434        1.8377643941
        4.1981879322        2.7445610077
        4.2479688210        2.1592702569
        4.2977497099        1.7946881725
        4.3475305987        1.6506367609
        4.3973114875        0.7373494235
        4.4470923764        0.0000000000
        4.4968732652        0.0000000000
        4.5466541540        0.0000000000
        4.5964350428        0.0000000000
        4.6462159317        0.0000000000
        4.6959968205        0.0000000000
        4.7457777093        0.0000000000
        4.7955585982        0.0000000000
        4.8453394870        0.0000000000
        4.8951203758        0.0000000000
        4.9449012646        0.0000000000
        4.9946821535        0.0000000000
        5.0444630423        0.0000000000
        5.0942439311        0.0000000000
        5.1440248199        0.0000000000
        5.1938057088        0.0000000000
        5.2435865976        0.0000000000
        5.2933674864        0.0000000000
        5.3431483753        0.0000000000
        5.3929292641        0.0000000000
        5.4427101529        0.0000000000
        5.4924910417        0.0000000000
        5.5422719306        0.0000000000
        5.5920528194        0.0000000000
        5.6418337082        0.0000000000
        5.6916145971        0.0000000000
        5.7413954859        0.0000000000
        5.7911763747        0.0000000000
        5.8409572635        0.0000000000
        5.8907381524        0.0000000000
        5.9405190412        0.0000000000
        5.9902999300        0.0000000000
        6.0400808189        0.0000000000
        6.0898617077        0.0000000000
        6.1396425965        0.0000000000
        6.1894234853        0.0000000000
        6.2392043742        0.0000000000
        6.2889852630        0.2886688979
        6.3387661518        0.6306585582
        6.3885470407        0.9255148733
        6.4383279295        1.1823096201
        6.4881088183        1.4596472812
        6.5378897071        1.7857791126
        6.5876705960        2.2967153729
        6.6374514848        2.7896843573
        6.6872323736        3.4261191723
        6.7370132624        3.7920862019
        6.7867941513        3.9426083619
        6.8365750401        4.5522019027
        6.8863559289        3.6232708620
        6.9361368178        2.7808736329
        6.9859177066        2.2380573525
        7.0356985954        1.9047811924
        7.0854794842        1.7932528873
        7.1352603731        1.7106099839
        7.1850412619        1.9075344517
        7.2348221507        2.3083691891
        7.2846030396        2.7870287021
        7.3343839284        2.7731780061
        7.3841648172        2.9703201145
        7.4339457060        3.8105916843
        7.4837265949        3.8258000746
        7.5335074837        3.7921983859
        7.5832883725        3.8806375082
        7.6330692614        3.8269352238
        7.6828501502        3.7029994221
        7.7326310390        3.6275872495
        7.7824119278        3.7354799714
        7.8321928167        3.7375323101
        7.8819737055        3.8406085339
        7.9317545943        3.7627539822
        7.9815354832        3.8680195106
        8.0313163720        4.0378646441
        8.0810972608        3.9858156941
        8.1308781496        4.0561556936
        8.1806590385        4.1959611508
        8.2304399273        3.7451813535
        8.2802208161        0.9033020407
        8.3300017049        0.0000000000
        8.3797825938        0.0000000000
        8.4295634826        0.0000000000
        8.4793443714        0.0000000000
        8.5291252603        0.0000000000
        8.5789061491        0.0000000000
        8.6286870379        0.0000000000
        8.6784679267        0.0000000000
        8.7282488156        0.0000000000
        8.7780297044        0.0000000000
        8.8278105932        0.0000000000
        8.8775914821        0.0000000000
        8.9273723709        0.0000000000
        8.9771532597        0.0000000000
        9.0269341485        0.0000000000
        9.0767150374        0.0000000000
        9.1264959262        0.0000000000
