4
Lattice="4.227508588896251 4.708751368774489e-05 -0.0008053814793013628 -0.0010193444931606544 4.209775797522923 -0.0016954229505449982 3.8567585792614894e-05 0.00015698884900206325 4.211139429328708" Properties=species:S:1:pos:R:3:forces:R:3 structure_index=0 total_energy=-11.990640640258789 stress="-0.06920161098241806 -0.0007624550489708781 -0.0006060200976207852 -0.0007625236175954342 -0.08896984905004501 -0.0020239066798239946 -0.0006061061867512763 -0.0020240109879523516 -0.08420039713382721" pbc="T T T"
Li       1.90043820       3.91096308       3.71478223       0.00007533       0.00012953      -0.00005154
Li       1.90049686       1.80607467       1.60962747       0.00059791       0.00002629       0.00044240
Ga       4.01432076       3.91085670       1.60910474      -0.00029107       0.00024523      -0.00037639
Sn       4.01477954       1.80635801       3.71523100      -0.00038218      -0.00040105      -0.00001446
12
Lattice="5.248549093375465 0.004478072051103046 -0.44562813602073187 -2.6629789704025546 4.488020725083636 -0.5602575429540018 0.011733669426163293 0.0778805798190529 9.606063598317297" Properties=species:S:1:pos:R:3:forces:R:3 structure_index=1 total_energy=-36.10297393798828 stress="0.009900595061480999 -0.007694890722632408 -0.0003681237867567688 -0.007694864645600319 0.024057215079665184 -0.00250557460822165 -0.0003681540547404438 -0.0025055683217942715 0.02732977457344532" pbc="T T T"
Li       0.31051271       0.57887848       6.60083132      -0.00419445       0.01388622       0.01826223
Li       4.23841484       1.26793083       1.24533411       0.00476683      -0.01602642      -0.01198176
Ga      -0.98314191       4.31039950       1.13302955      -0.02059568      -0.00676920      -0.00685664
Ga      -0.38662158       2.40669526       8.68378528       0.01141711       0.01556423      -0.01977603
Ga       2.29003120       4.00544192       8.21986869      -0.01177255      -0.01891500       0.00672214
Ga       0.93487673       1.66913915       3.89066548       0.02027744      -0.00786378       0.00406140
Ga       2.87273705       2.03023180       6.15089663       0.02286636       0.00443350       0.01445875
Ga       2.28563938       0.96160974       8.72550160      -0.00189789      -0.00027685      -0.00309737
Ga       1.54039464       2.77151175       1.16702652       0.00246102       0.02558107      -0.01763157
Ga       3.61335367       0.17938123       3.96156286      -0.02080711       0.00942378      -0.00803499
Ga       0.34438367       3.55539857       6.12243919      -0.00180367      -0.01774830       0.02161581
Sn      -1.68150802       3.16688782       3.86195694      -0.00071740      -0.00128927       0.00225805
6
Lattice="3.19550575116096 -0.0035850483954902607 0.0004589287767790819 0.004725222890474222 4.566157403538119 0.003633978383086813 0.004796330079456514 -0.010792347793586635 8.307142815819693" Properties=species:S:1:pos:R:3:forces:R:3 structure_index=2 total_energy=-18.870431900024414 stress="-0.034654028713703156 -0.0005488384049385786 0.00011454301420599222 -0.0005489030736498535 -0.05242474377155304 -0.0006681298254989088 0.00011443869152572006 -0.0006680633523501456 -0.03742755949497223" pbc="T T T"
Li       0.95559521       1.76379081       2.62609829      -0.00048229      -0.00107932       0.02287539
Li       2.54914617       4.04059682       6.74214575       0.00143059       0.00059761      -0.02384645
Ga       0.95499200       4.04287102       4.33040861       0.00073302       0.00070647      -0.03779956
Ga       2.55258265       1.75746646       5.03926759      -0.00142834       0.00024091       0.03238294
Sn       2.55753976       4.04517428       1.54065373      -0.00011437       0.00145319       0.00672741
Sn       0.94823674       1.75973850       7.82068133      -0.00013863      -0.00191885      -0.00033973
18
Lattice="4.197922995303374 0.0024507984266827704 -0.002571187245238909 -2.102587381536532 6.40470549482132 -0.08615343486831951 0.006555291056443098 0.009667306906404056 12.797162094214192" Properties=species:S:1:pos:R:3:forces:R:3 structure_index=3 total_energy=-54.47393798828125 stress="0.010492086410522461 -3.354959699208848e-05 -0.0005340056959539652 -3.3537020499352366e-05 -0.0061850398778915405 0.0012241003569215536 -0.0005339283379726112 0.001224110834300518 0.009198185987770557" pbc="T T T"
Li       2.19650438       0.63220846       6.22239045       0.00017405       0.00224364       0.00827422
Li       0.10312568       0.56699145      12.52316377       0.00021568      -0.00134716       0.00530337
Li       0.09969520       0.54824936       8.47266584      -0.00029109       0.00174020       0.01130356
Li       2.19407015       4.78534498       1.83161147       0.00013932      -0.00643967      -0.01926843
Li       0.09624901       0.64323289       4.05661575       0.00061512       0.00008509      -0.01003078
Ga       0.10152349       4.89776295      12.49130528      -0.00084907      -0.00146479      -0.01221362
Ga       2.19694244       0.45696143       1.86303500      -0.00028204      -0.00618380      -0.01707651
Ga       2.20010349       0.56296365      10.53151182       0.00054440       0.00956542      -0.00051747
Ga       0.10041243       2.77702757      10.51173101      -0.00063379      -0.00154748       0.00436763
Ga       2.19432760       4.95992277       6.22759195       0.00049287       0.00111196       0.02223426
Ga       2.20103815       2.77827749      12.47907763       0.00009297      -0.00507928       0.00342222
Ga       2.19498444       2.67879687       4.14295569       0.00055312       0.01552907      -0.01962458
Ga       0.09726543       4.98733234       8.27510550      -0.00047405      -0.00727842       0.02867553
Ga       0.09695406       2.70843580       6.14441194      -0.00050363       0.00106210      -0.00760764
Ga       2.19816949       4.92434171      10.44485396       0.00016749       0.00270467       0.00109966
Sn       2.19658668       2.75042987       8.31772513       0.00129139      -0.02272883      -0.00123913
Sn       0.09711765       2.61124856       1.86708379      -0.00107671       0.00339787      -0.00921223
Sn       0.09462848       4.92005818       4.05547965      -0.00017604       0.01462943       0.01210993
11
Lattice="4.505646560819166 -0.001028111191636707 -1.2525603521264885 -0.15395314827861392 5.45678058850016 -0.5585811450220027 -0.18525715303981163 0.7256822650659983 8.06269148311437" Properties=species:S:1:pos:R:3:forces:R:3 structure_index=4 total_energy=-26.238845825195312 stress="-0.015215366147458553 -0.0044646551832556725 0.0033051050268113613 -0.004464621189981699 0.03342022746801376 -0.016196565702557564 0.003305041929706931 -0.01619659550487995 -0.004491935949772596" pbc="T T T"
Li       3.22774085       4.47557765       0.71997079       0.00035052      -0.01019564       0.00153280
Li      -0.07484920       1.47819652       6.30241878       0.00142136       0.01342261       0.00559271
Li       3.95401607       4.30217805       3.33293940      -0.00617540       0.03610953      -0.02227353
Li       0.91538978       0.58572426       1.13590216       0.00859225      -0.04270570       0.03071816
Li       2.91113068       1.98465138      -0.41650832       0.00408059      -0.02985026       0.01455351
Li       1.89195197       2.76949393       4.64667223      -0.00468944       0.02230745      -0.01705281
Li       1.47026658       5.63059393       3.12751516       0.00197817       0.01087036       0.00708543
Li       2.25376566       5.45561020       5.94542389       0.00133377      -0.00986915       0.00466769
Li       0.25528350       4.14076622       7.48753628      -0.00239154      -0.00301686      -0.00820747
Ga       1.15589966       3.19110986       1.99859953      -0.00419620       0.00269822      -0.01513021
Sn       3.67153264       1.65164554       2.31935247      -0.00030411       0.01022941      -0.00148630
11
Lattice="3.067795992195792 -4.541828194941005e-07 0.00028714989537305304 0.0008214865754158757 7.697617639332205 -0.6814165048789548 -0.0006591644863011806 -0.05657477943688395 9.492440684344542" Properties=species:S:1:pos:R:3:forces:R:3 structure_index=5 total_energy=-35.13972854614258 stress="-0.022261476144194603 1.0439166544529144e-05 -0.0001030375060508959 1.0461477359058335e-05 0.019026488065719604 -0.008963770233094692 -0.00010296857362845913 -0.008963733911514282 0.016823751851916313" pbc="T T T"
Li       0.35140071       1.86174479       0.27141047      -0.00070435       0.01655834       0.00235090
Li       0.35232785       5.98282758       6.58737510      -0.00063693       0.00362225       0.00207803
Li       0.35040180       1.53991369       4.52329648      -0.00040741      -0.00381623      -0.00039054
Li       0.35065609       5.72523541       1.34879869       0.00004613      -0.01893428      -0.00166897
Ga       1.88408963       3.75859309       5.55682515       0.00027093       0.00242304      -0.00030035
Ga       1.88541810       7.02825767       8.79057987      -0.00009855       0.01629605      -0.01351926
Ga       1.88430857       0.49894853       2.32125717      -0.00012937      -0.01917132       0.01533334
Sn       1.88186748       3.39594975       2.55715408       0.00188560       0.04043877      -0.01452000
Sn       1.88476096       1.05067771       7.11233985      -0.00003496       0.03427107       0.01646741
Sn       1.88484007       6.47348250       4.00283048       0.00001635      -0.03485283      -0.01991423
Sn       1.88497090       4.12907220       8.55597057      -0.00020744      -0.03683484       0.01408366
6
Lattice="3.32999612419443 -0.00022906580323235953 2.561901406550242e-05 0.0008557529618642626 3.33006735836896 -0.00071605328182551 -0.0001701486358743574 0.0005017600928372185 10.268568400122074" Properties=species:S:1:pos:R:3:forces:R:3 structure_index=6 total_energy=-18.48604393005371 stress="0.003277722978964448 0.001878587412647903 0.0004036241734866053 0.0018785669235512614 0.0034750213380903006 -0.0013125307159498334 0.00040352196083404124 -0.001312647364102304 0.06566469371318817" pbc="T T T"
Li       1.34536494       2.76082265       7.05322952      -0.00075940      -0.00045673      -0.01462850
Li       1.34411120       2.76017354       9.98168015       0.00062653       0.00049566       0.01398388
Li       1.34507265       2.75919632       3.38726888      -0.00020735       0.00054076      -0.00493139
Ga       3.00925286       1.09549243       8.51847407       0.00006267      -0.00019860      -0.00089831
Sn       3.00964273       1.09504392       1.46903986      -0.00041410      -0.00054560       0.02187023
Sn       3.00904370       1.09473745       5.29608882       0.00069164       0.00016451      -0.01539586
4
Lattice="3.89594516811967 0.00022818972187264278 2.2504197204512706 1.297010729235611 3.6736994827487326 2.249515688639255 -0.00019368958391497636 -6.272975151955851e-05 4.4991774601541845" Properties=species:S:1:pos:R:3:forces:R:3 structure_index=7 total_energy=-9.5972900390625 stress="0.03261391445994377 -0.0034550235141068697 0.001987969735637307 -0.0034551280550658703 0.034136708825826645 0.00020087954180780798 0.0019879431929439306 0.00020104809664189816 0.029168343171477318" pbc="T T T"
Li       1.74637595       1.71760972       5.54986435       0.00434478       0.00117258       0.00121421
Li       3.04582427       2.63569640       3.30017069       0.00003897       0.00079914       0.00098177
Li       4.34508187       3.55451027       5.55065518      -0.00128807       0.00140520       0.00012253
Ga       0.45065284       0.80062047       3.30133374      -0.00309569      -0.00337691      -0.00231852
10
Lattice="3.2477831523358818 -9.560935447595931e-05 0.0008018229650434433 0.0005012876872625109 3.2488579490415774 -0.000716623559587844 -0.0007202662071682058 0.0006336064458407273 15.623799082055779" Properties=species:S:1:pos:R:3:forces:R:3 structure_index=8 total_energy=-28.365373611450195 stress="0.015252281911671162 0.0019659260287880898 0.0031216973438858986 0.001965983770787716 0.01553829200565815 -0.002744929865002632 0.003121841000393033 -0.002744935918599367 0.00818448606878519" pbc="T T T"
Li       2.01320402       2.16905977       5.89550724      -0.00071045      -0.00086135      -0.01294170
Li       2.01213731       2.16849124      14.80280970       0.00049660       0.00022458       0.00320756
Li       2.01234719       2.17018701      11.78579002      -0.00001729      -0.00146254       0.01250443
Li       2.01186456       2.16945308       8.83977230       0.00022497      -0.00092663       0.00267364
Li       2.01311184       2.16778658       2.88133531      -0.00004890       0.00055984      -0.00697418
Ga       0.38820096       0.54389175       7.36772732       0.00028450       0.00153106       0.01337959
Ga       0.38855693       0.54443034      13.25059528      -0.00082180       0.00101477       0.01505335
Ga       0.38879037       0.54417154       4.42602108       0.00036450      -0.00022855      -0.00674072
Ga       0.38773599       0.54497017      10.31664075       0.00046406       0.00048392      -0.01983514
Sn       0.38908751       0.54377835       1.03018709      -0.00023621      -0.00033509      -0.00032681
12
Lattice="4.184587041425775 0.00588303593108616 -0.008530765602567911 -0.013762475211369684 5.838986516088526 -0.01532354341792417 0.006609586819713605 0.01656581880689495 8.865682295567582" Properties=species:S:1:pos:R:3:forces:R:3 structure_index=9 total_energy=-34.807064056396484 stress="0.027180582284927368 -0.0018835430964827538 -0.002939378609880805 -0.0018835678929463029 0.00457769213244319 -0.001225973479449749 -0.002939401427283883 -0.0012260146904736757 0.03227577358484268" pbc="T T T"
Li       1.38769986       0.18658091       6.90803417       0.00030539       0.01296652       0.03780662
Li       3.46576175       4.40083499       2.45795691      -0.00049914      -0.00957411       0.03839462
Li       3.47003861       4.41080848       8.14086071      -0.00077536      -0.01173595      -0.03776218
Li       3.47715477       1.67940470       5.31090847       0.00001818      -0.00371443      -0.00134607
Li       1.37474571       2.90315480       0.87388095      -0.00021725       0.00685750       0.00029327
Li       1.38506480       0.18461180       3.72665952       0.00021061       0.01133644      -0.03999102
Ga       1.37931572       3.00030741       3.85363245      -0.00065355      -0.03998207       0.02238685
Ga       3.47279000       1.58753623       2.32611797      -0.00000938       0.03789502      -0.01897805
Ga       3.47712792       1.59505526       8.28892179      -0.00064010       0.04061993       0.02006267
Ga       1.38138459       3.00456112       6.76030472       0.00015239      -0.04097838      -0.02154873
Sn       1.36725863       5.81657427       0.86786735       0.00172778      -0.02630565       0.00151774
Sn       3.46815512       4.60786613       5.29965124       0.00038043       0.02261518      -0.00083570
10
Lattice="3.240758933167727 -0.00148824746768002 0.00030893109956228694 0.0016431063301734136 3.2414934814965366 0.0003254730201438732 -0.0009183647750429328 -0.0014457448547931595 15.696543370135569" Properties=species:S:1:pos:R:3:forces:R:3 structure_index=10 total_energy=-28.364704132080078 stress="0.006503159645944834 0.0007472460274584591 0.00015280451043508947 0.0007472297293134034 0.006706981919705868 0.00020803774532396346 0.00015303899999707937 0.00020826647232752293 0.027588171884417534" pbc="T T T"
Li       2.44130398       1.19351270       2.29162667       0.00004744       0.00023639       0.00522120
Li       2.44154062       1.19356205      14.95439812      -0.00048342      -0.00010223       0.01263719
Li       2.44146358       1.19425003      11.99930712      -0.00057644      -0.00051549      -0.00127343
Li       2.44243052       1.19451288       9.04809906      -0.00177648      -0.00166575      -0.01151780
Li       2.44135038       1.19375556       6.02481338       0.00028290      -0.00034854      -0.00438578
Ga       0.82225592       2.81586493      13.47785886      -0.00073845      -0.00097056      -0.01455990
Ga       0.82187545       2.81551227       0.73120879       0.00077034       0.00057275       0.01403482
Ga       0.82231892       2.81484110       7.58573483       0.00000853       0.00118647      -0.02623058
Ga       0.82082412       2.81483987      10.51529393       0.00255369       0.00158016       0.02960103
Sn       0.82185718       2.81509098       4.16080901      -0.00008809       0.00002683      -0.00352673
4
Lattice="4.042262431629461 3.4293302036883173e-05 2.333627471756742 1.3471123816628228 3.812148196469036 2.3329478585908374 6.735900010274197e-05 6.0190824938048595e-05 4.66801856709851" Properties=species:S:1:pos:R:3:forces:R:3 structure_index=11 total_energy=-12.011045455932617 stress="0.07469239085912704 -0.00023842082009650767 -0.002738823415711522 -0.00023845661780796945 0.08332567662000656 -0.002518906258046627 -0.0027389780152589083 -0.0025189421139657497 0.07547113299369812" pbc="T T T"
Li       5.06461843       3.16621673       6.28097610      -0.00077935      -0.00040010      -0.00068261
Li       2.36968968       1.25957338       6.28113318      -0.00047086       0.00057068       0.00020440
Ga       3.71668292       2.21328357       3.94797877       0.00037188      -0.00042310      -0.00099464
Sn       1.02194526       0.30668659       3.94699320       0.00087834       0.00025252       0.00147285
10
Lattice="4.402716672814194 0.009473328174639773 -1.2244661421783491 -0.4080352597638919 6.245403355609339 -1.4213133411961447 -0.0046844078840800355 -0.00763959095578536 8.499766591953575" Properties=species:S:1:pos:R:3:forces:R:3 structure_index=12 total_energy=-34.42546081542969 stress="0.005849520675837994 -4.70336017315276e-05 -0.00025713304057717323 -4.7100013034651056e-05 0.015662865713238716 -0.00473924120888114 -0.0002570717188064009 -0.004739274270832539 0.004736525937914848" pbc="T T T"
Li       2.72859149       4.27069844      -1.39158950       0.00021272      -0.01147639       0.00669145
Li       3.74130540       1.90409773       2.23797674      -0.01017082       0.01730449      -0.03575811
Li       2.10364460       0.52805401       4.87140775       0.00194215      -0.00208402       0.00384906
Ga       0.01480405       5.47515000       5.90691253       0.00507315       0.02097133       0.02107380
Sn       0.84967541       6.20304479       0.40158067       0.00451587      -0.00233910       0.01484299
Sn       2.92204668       1.06695164      -0.71835410      -0.01327073       0.02960989      -0.03635060
Sn       1.89940271       3.68276954       4.14261904      -0.01446966      -0.01098367      -0.03808894
Sn       0.17043340       2.35154359       6.45524331       0.01459398       0.00207099       0.04199103
Sn       3.57849690       5.06842880       1.68254450       0.00474778      -0.04250482       0.00865547
Sn       1.02370955       3.06666060       1.01320905       0.00682556      -0.00056870       0.01309386
6
Lattice="3.187633143172201 -0.0017235474929739804 0.6768068401379669 -0.26180861954415086 5.285221503378492 1.270039924391643 0.11891494022688066 0.12470243218583744 7.440319138352686" Properties=species:S:1:pos:R:3:forces:R:3 structure_index=13 total_energy=-18.996341705322266 stress="0.004153877962380648 -0.006858935579657555 0.013467198237776756 -0.006858986336737871 0.029163964092731476 0.02739834599196911 0.013467073440551758 0.027398468926548958 -0.020604126155376434" pbc="T T T"
Li       2.25172944       0.57578558       5.63082135      -0.00355485      -0.02149167       0.02594185
Li       2.57123770       4.06941778       4.12873815       0.00336749       0.02138609      -0.02767385
Ga       0.04379263       0.74227125       0.22346204       0.00325041      -0.04276636      -0.01045342
Ga       1.46996030       3.78043121       1.41694418      -0.00266229       0.04228586       0.00992034
Sn       1.12173194       1.46710607       2.98762183       0.01341423       0.04118790      -0.01926398
Sn       0.51316679       3.17942769       6.09211335      -0.01381501      -0.04060182       0.02152905
16
Lattice="4.9382372685723555 0.0006770954309114316 0.018587055780027426 -0.002181286451003944 5.333328854968926 -0.00045137337565403433 0.06743331760415808 -0.0019303264676393502 13.182004582284023" Properties=species:S:1:pos:R:3:forces:R:3 structure_index=14 total_energy=-50.71983337402344 stress="-0.0019262376008555293 -0.0003711827448569238 0.0044933222234249115 -0.00037121307104825974 -0.0007501306827180088 -0.00013677094830200076 0.004493314307183027 -0.00013672839850187302 -0.01527863647788763" pbc="T T T"
Li       0.95227050       5.32490081      12.81084075      -0.00039398       0.00001051      -0.01451311
Li       0.94338263       5.32450185       6.16351154       0.00179532       0.00019799       0.00514495
Li       1.84550238       2.65906902       4.47935424       0.00594733      -0.00034538       0.02957700
Li       1.88708778       2.65736801      11.10339142      -0.00093170       0.00027505      -0.02416893
Li       0.95417994       5.32434343       9.43888602       0.00322159       0.00006959      -0.00698945
Li       0.90785371       5.32420009       2.79132449       0.00205885       0.00067253       0.01447571
Li       1.86970584       2.65979000       1.19382592       0.00699545      -0.00017043       0.00147945
Ga       3.36309057       5.32794864       1.21730095       0.01917684      -0.00052160      -0.00237538
Ga       1.83347529       2.65732586       7.79719520      -0.02157864      -0.00018881      -0.00122274
Sn       4.31518636       2.65755605       9.52394052      -0.01481760       0.00035354       0.01262176
Sn       4.35404487       2.65836211      12.83937202      -0.00394169       0.00064188       0.02146437
Sn       4.29161719       2.65884572       2.76358122       0.00210085       0.00007449      -0.02483230
Sn       3.38163946       5.32648373       4.43119666       0.00406420      -0.00101396      -0.02955860
Sn       3.41064384       5.32648944      11.19506136       0.00181517      -0.00104826       0.02572183
Sn       4.29810024       2.65788571       6.08541826      -0.01145265       0.00016596      -0.01226405
Sn       3.40111564       5.32319438       7.80418798       0.00594066       0.00082691       0.00543949
12
Lattice="4.233497271957092 0.0006259948935798456 0.0005254671757497114 -0.00039972927541723576 6.391273045954299 -0.0019030004497225497 -0.001410308478243674 0.003952070727071811 9.168287328271948" Properties=species:S:1:pos:R:3:forces:R:3 structure_index=15 total_energy=-37.92206954956055 stress="0.00747082382440567 0.00019018513557966799 -6.058323197066784e-05 0.00019017986778635532 0.011774771846830845 0.000443281460320577 -6.063510954845697e-05 0.00044316117418929935 0.0023485159035772085" pbc="T T T"
Li       1.09000942       2.42206254       6.94454181      -0.00050348      -0.00247370      -0.00008418
Li       3.20588060       0.66719917       2.36364566       0.00047473       0.00226261      -0.00104645
Li       1.08846237       5.61595599       6.87625955       0.00038474      -0.00206796       0.00527199
Li       3.20647918       3.86050153       2.29660982      -0.00008440       0.00382484       0.00146263
Ga       1.08919026       5.54931752       0.79030369       0.00048316      -0.00873251       0.01975015
Ga       3.20596888       0.73294390       8.45141202      -0.00039912       0.01019206      -0.01672753
Ga       3.20633140       3.92863006       5.37805234      -0.00027816       0.00791253       0.01431650
Ga       1.08933735       2.35520090       3.86822355       0.00050819      -0.00989718      -0.01948858
Sn       1.08941159       5.41577114       3.82993854       0.00001881       0.03881947      -0.01807311
Sn       3.20519146       4.06579009       8.40862055       0.00024860      -0.03982012      -0.00826516
Sn       3.20659258       0.86791197       5.41915947      -0.00048535      -0.03743524       0.00786258
Sn       1.09010656       2.21974422       0.82894371      -0.00036772       0.03741518       0.01502117
14
Lattice="4.61052722640228 0.004503226132568866 -0.0029686548477959466 -0.007604433981274201 6.493492281915854 -2.6333172220216303 0.006353483442577101 -0.03316848093742145 7.9813294661982885" Properties=species:S:1:pos:R:3:forces:R:3 structure_index=16 total_energy=-37.750816345214844 stress="0.025057636201381683 0.0029931229073554277 0.004336087964475155 0.002993163652718067 0.02027897536754608 -0.0008379085338674486 0.004336066078394651 -0.0008379060891456902 0.007953254505991936" pbc="T T T"
Li       1.70321985       6.17394575       2.59799215       0.00056676      -0.00111242      -0.00377650
Li       1.70557170       3.44861280       2.58128377      -0.00022311      -0.00774677       0.00040273
Li       1.70378413       4.22068276      -0.07486732      -0.00108890      -0.00562076      -0.00011229
Li       4.01650700       0.60125820       6.56639859       0.00035773       0.02182439      -0.00375194
Li       4.01421911       3.43323122       6.57092387      -0.00006143      -0.00587623       0.00490491
Li       4.01066123       4.20686743       3.91679618       0.00105877      -0.00646710      -0.00383512
Li       1.70761235       0.61481426       2.57200513      -0.00004303       0.02353236       0.00014685
Li       4.00507652       6.19131344      -1.39244833       0.00066671      -0.00533613      -0.00361523
Li       4.01307886       1.42387057       3.90566168       0.00060636      -0.00648524       0.00019717
Li       1.70583040       1.44199385      -0.08721725      -0.00104901      -0.01009456       0.00241552
Ga       4.00914968       5.23530279       1.25876305      -0.00091404      -0.01869588       0.00400455
Ga       1.70624753       5.22250348       5.25286426      -0.00048758      -0.02037899      -0.00100431
Sn       4.01089629       2.47737252       1.24704500      -0.00023880       0.03302857       0.00129570
Sn       1.70821031       2.46658337       5.23816434       0.00084959       0.00942869       0.00272796
8
Lattice="4.344773200996941 -0.005912724907267314 -0.0006539752488300361 -2.1689970932462215 5.911242501052849 -0.004940530134485529 0.0008210046805244293 0.007826562967771475 6.677524556522823" Properties=species:S:1:pos:R:3:forces:R:3 structure_index=17 total_energy=-24.924758911132812 stress="-0.032481640577316284 -0.0008412198512814939 0.0001809244859032333 -0.0008412207243964076 -0.007177442777901888 0.0004098144709132612 0.0001808127562981099 0.00040979511686600745 -0.002382220234721899" pbc="T T T"
Li       0.78793851       6.01066688       5.57047877       0.00060611       0.02947911      -0.00057926
Li       2.95868633       0.74912830       2.23133312      -0.00049323      -0.02950219       0.00060694
Ga      -1.38381668       5.10826183       3.56304209      -0.00076281      -0.00432690      -0.00510470
Ga       0.78587223       1.65737478       4.23954044       0.00070941       0.00431508       0.00505037
Ga      -1.38447731       5.10482806       0.89777897      -0.00051201      -0.00428217       0.00536414
Ga       0.78569073       1.65309887       0.22722061       0.00046705       0.00425011      -0.00521054
Sn       0.78591036       3.58479900       2.23156416       0.00158339      -0.02034049      -0.00006313
Sn       2.96094161       3.17495622       5.57047765      -0.00159793       0.02040744      -0.00006381
9
Lattice="3.104270014355096 -0.007457108866632269 0.0035560757301838805 0.017551396761054567 6.5226767867746 -3.7523996327162297 -0.012860086760701925 -0.01577017732899969 7.528262307252766" Properties=species:S:1:pos:R:3:forces:R:3 structure_index=18 total_energy=-25.911752700805664 stress="-0.04421884939074516 -0.005639431998133659 -0.004000290296971798 -0.005639337468892336 0.029820164665579796 -0.005646510515362024 -0.004000224173069 -0.005646647419780493 0.0399036705493927" pbc="T T T"
Li       1.37587077       4.67854167       4.38205192       0.00057754      -0.00786773       0.00259565
Li       1.37739647       2.28129898       1.01372526       0.00055339      -0.00223490      -0.00413045
Li       1.38731075       6.38976644       0.61534105      -0.00039555       0.00607496       0.00600294
Ga       1.37032637       2.26881797       5.76697492      -0.00092269      -0.00064490      -0.00562964
Ga       2.92631198       0.10129065       1.99947222      -0.00171709      -0.00017401      -0.00310801
Ga       2.91394407       0.30495174       6.89425396       0.00328545      -0.03928674       0.02486646
Ga       2.92471199       2.26929674       3.50471555       0.00208404       0.00317687      -0.04348475
Ga       2.93408592       4.44500971       2.00621184      -0.00203349      -0.00052727       0.00389284
Ga       2.93847331       4.23536026      -0.62455337      -0.00143160       0.04148370       0.01899493
16
Lattice="4.230190661391825 0.0026401306670492696 -0.4931808884442691 -0.06281421854628697 4.259351810325951 -0.509433185673565 -0.08276121407677088 -0.051134375105627294 17.559308900252645" Properties=species:S:1:pos:R:3:forces:R:3 structure_index=19 total_energy=-49.602867126464844 stress="-0.010077870450913906 -0.00074936100281775 0.004445025697350502 -0.0007493524462915957 0.004161341581493616 0.003675038693472743 0.004445001482963562 0.0036749711725860834 0.012435730546712875" pbc="T T T"
Li       2.50490195       1.66773731      11.12793688      -0.00465326      -0.00377249      -0.02784625
Li       0.65879446       1.94993671      13.69783873       0.00210082       0.00106902       0.01992443
Li       3.39331886       0.39189054       0.43624973      -0.00233913      -0.00239530      -0.01295775
Li       3.62845844       2.79991454       2.47598852       0.00234324       0.00065321       0.00759441
Li       2.04649275       1.18890803       7.24172390       0.00130294       0.00232731       0.01341281
Ga       1.76595167       3.05952221       4.86839045       0.00093584       0.00003639       0.00069786