# Thermal properties / unit cell (natom)

unit:
  temperature:   K
  free_energy:   kJ/mol
  entropy:       J/K/mol
  heat_capacity: J/K/mol

natom: 4    
cutoff_frequency: 0.00000
num_modes: 116424
num_integrated_modes: 116421

zero_point_energy:       6.6299096

thermal_properties:
- temperature:         0.0000000
  free_energy:         6.6299096
  entropy:             0.0000000
  heat_capacity:       0.0000000
  energy:              6.6299096

- temperature:        10.0000000
  free_energy:         6.6258221
  entropy:             1.7149132
  heat_capacity:       5.3573943
  energy:              6.6429712

- temperature:        20.0000000
  free_energy:         6.5664686
  entropy:            11.4401084
  heat_capacity:      25.9270766
  energy:              6.7952708

- temperature:        30.0000000
  free_energy:         6.3829529
  entropy:            25.5009066
  heat_capacity:      43.4196145
  energy:              7.1479801

- temperature:        40.0000000
  free_energy:         6.0564668
  entropy:            39.6627973
  heat_capacity:      54.7991618
  energy:              7.6429786

- temperature:        50.0000000
  free_energy:         5.5932447
  entropy:            52.7886193
  heat_capacity:      62.7380140
  energy:              8.2326756

- temperature:        60.0000000
  free_energy:         5.0044733
  entropy:            64.7856491
  heat_capacity:      68.8093157
  energy:              8.8916123

- temperature:        70.0000000
  free_energy:         4.3009053
  entropy:            75.7705912
  heat_capacity:      73.6658923
  energy:              9.6048467

- temperature:        80.0000000
  free_energy:         3.4919983
  entropy:            85.8738161
  heat_capacity:      77.6112301
  energy:             10.3619036

- temperature:        90.0000000
  free_energy:         2.5859921
  entropy:            95.2074857
  heat_capacity:      80.8335505
  energy:             11.1546658

- temperature:       100.0000000
  free_energy:         1.5900994
  entropy:           103.8654191
  heat_capacity:      83.4749932
  energy:             11.9766413

- temperature:       110.0000000
  free_energy:         0.5106711
  entropy:           111.9267403
  heat_capacity:      85.6497717
  energy:             12.8226126

- temperature:       120.0000000
  free_energy:        -0.6466724
  entropy:           119.4588572
  heat_capacity:      87.4500391
  energy:             13.6883904

- temperature:       130.0000000
  free_energy:        -1.8769357
  entropy:           126.5195999
  heat_capacity:      88.9495004
  energy:             14.5706123

- temperature:       140.0000000
  free_energy:        -3.1756601
  entropy:           133.1588157
  heat_capacity:      90.2066550
  energy:             15.4665741

- temperature:       150.0000000
  free_energy:        -4.5388513
  entropy:           139.4196283
  heat_capacity:      91.2677536
  energy:             16.3740930

- temperature:       160.0000000
  free_energy:        -5.9629166
  entropy:           145.3394684
  heat_capacity:      92.1693471
  energy:             17.2913983

- temperature:       170.0000000
  free_energy:        -7.4446132
  entropy:           150.9509326
  heat_capacity:      92.9403830
  energy:             18.2170454

- temperature:       180.0000000
  free_energy:        -8.9810027
  entropy:           156.2825039
  heat_capacity:      93.6038750
  energy:             19.1498480

- temperature:       190.0000000
  free_energy:       -10.5694138
  entropy:           161.3591576
  heat_capacity:      94.1782106
  energy:             20.0888261

- temperature:       200.0000000
  free_energy:       -12.2074097
  entropy:           166.2028713
  heat_capacity:      94.6781639
  energy:             21.0331646

- temperature:       210.0000000
  free_energy:       -13.8927597
  entropy:           170.8330535
  heat_capacity:      95.1156763
  energy:             21.9821815

- temperature:       220.0000000
  free_energy:       -15.6234165
  entropy:           175.2669048
  heat_capacity:      95.5004590
  energy:             22.9353026

- temperature:       230.0000000
  free_energy:       -17.3974946
  entropy:           179.5197222
  heat_capacity:      95.8404574
  energy:             23.8920415

- temperature:       240.0000000
  free_energy:       -19.2132532
  entropy:           183.6051563
  heat_capacity:      96.1422118
  energy:             24.8519843

- temperature:       250.0000000
  free_energy:       -21.0690806
  entropy:           187.5354283
  heat_capacity:      96.4111373
  energy:             25.8147764

- temperature:       260.0000000
  free_energy:       -22.9634812
  entropy:           191.3215154
  heat_capacity:      96.6517427
  energy:             26.7801128

- temperature:       270.0000000
  free_energy:       -24.8950634
  entropy:           194.9733072
  heat_capacity:      96.8678028
  energy:             27.7477295

- temperature:       280.0000000
  free_energy:       -26.8625296
  entropy:           198.4997402
  heat_capacity:      97.0624945
  energy:             28.7173977

- temperature:       290.0000000
  free_energy:       -28.8646674
  entropy:           201.9089125
  heat_capacity:      97.2385051
  energy:             29.6889172

- temperature:       300.0000000
  free_energy:       -30.9003416
  entropy:           205.2081824
  heat_capacity:      97.3981181
  energy:             30.6621131

- temperature:       310.0000000
  free_energy:       -32.9684871
  entropy:           208.4042535
  heat_capacity:      97.5432836
  energy:             31.6368314

- temperature:       320.0000000
  free_energy:       -35.0681031
  entropy:           211.5032480
  heat_capacity:      97.6756736
  energy:             32.6129362

- temperature:       330.0000000
  free_energy:       -37.1982472
  entropy:           214.5107709
  heat_capacity:      97.7967279
  energy:             33.5903072

- temperature:       340.0000000
  free_energy:       -39.3580308
  entropy:           217.4319647
  heat_capacity:      97.9076912
  energy:             34.5688372

- temperature:       350.0000000
  free_energy:       -41.5466146
  entropy:           220.2715587
  heat_capacity:      98.0096438
  energy:             35.5484310

- temperature:       360.0000000
  free_energy:       -43.7632046
  entropy:           223.0339104
  heat_capacity:      98.1035267
  energy:             36.5290032

- temperature:       370.0000000
  free_energy:       -46.0070488
  entropy:           225.7230435
  heat_capacity:      98.1901620
  energy:             37.5104773

- temperature:       380.0000000
  free_energy:       -48.2774338
  entropy:           228.3426802
  heat_capacity:      98.2702710
  energy:             38.4927847

- temperature:       390.0000000
  free_energy:       -50.5736822
  entropy:           230.8962702
  heat_capacity:      98.3444879
  energy:             39.4758631

- temperature:       400.0000000
  free_energy:       -52.8951498
  entropy:           233.3870160
  heat_capacity:      98.4133724
  energy:             40.4596567

- temperature:       410.0000000
  free_energy:       -55.2412230
  entropy:           235.8178963
  heat_capacity:      98.4774198
  energy:             41.4441145

- temperature:       420.0000000
  free_energy:       -57.6113174
  entropy:           238.1916852
  heat_capacity:      98.5370695
  energy:             42.4291904

- temperature:       430.0000000
  free_energy:       -60.0048751
  entropy:           240.5109711
  heat_capacity:      98.5927126
  energy:             43.4148425

- temperature:       440.0000000
  free_energy:       -62.4213632
  entropy:           242.7781720
  heat_capacity:      98.6446978
  energy:             44.4010325

- temperature:       450.0000000
  free_energy:       -64.8602724
  entropy:           244.9955506
  heat_capacity:      98.6933370
  energy:             45.3877253

- temperature:       460.0000000
  free_energy:       -67.3211152
  entropy:           247.1652266
  heat_capacity:      98.7389096
  energy:             46.3748890

- temperature:       470.0000000
  free_energy:       -69.8034246
  entropy:           249.2891888
  heat_capacity:      98.7816669
  energy:             47.3624941

- temperature:       480.0000000
  free_energy:       -72.3067529
  entropy:           251.3693054
  heat_capacity:      98.8218347
  energy:             48.3505137

- temperature:       490.0000000
  free_energy:       -74.8306704
  entropy:           253.4073333
  heat_capacity:      98.8596170
  energy:             49.3389229

- temperature:       500.0000000
  free_energy:       -77.3747648
  entropy:           255.4049269
  heat_capacity:      98.8951982
  energy:             50.3276987

- temperature:       510.0000000
  free_energy:       -79.9386394
  entropy:           257.3636460
  heat_capacity:      98.9287452
  energy:             51.3168201

- temperature:       520.0000000
  free_energy:       -82.5219130
  entropy:           259.2849622
  heat_capacity:      98.9604094
  energy:             52.3062673

- temperature:       530.0000000
  free_energy:       -85.1242186
  entropy:           261.1702661
  heat_capacity:      98.9903287
  energy:             53.2960224

- temperature:       540.0000000
  free_energy:       -87.7452027
  entropy:           263.0208726
  heat_capacity:      99.0186282
  energy:             54.2860685

- temperature:       550.0000000
  free_energy:       -90.3845246
  entropy:           264.8380264
  heat_capacity:      99.0454226
  energy:             55.2763900

- temperature:       560.0000000
  free_energy:       -93.0418557
  entropy:           266.6229070
  heat_capacity:      99.0708161
  energy:             56.2669723

- temperature:       570.0000000
  free_energy:       -95.7168789
  entropy:           268.3766330
  heat_capacity:      99.0949045
  energy:             57.2578019

- temperature:       580.0000000
  free_energy:       -98.4092880
  entropy:           270.1002661
  heat_capacity:      99.1177753
  energy:             58.2488663

- temperature:       590.0000000
  free_energy:      -101.1187872
  entropy:           271.7948151
  heat_capacity:      99.1395090
  energy:             59.2401537

- temperature:       600.0000000
  free_energy:      -103.8450906
  entropy:           273.4612392
  heat_capacity:      99.1601795
  energy:             60.2316530

- temperature:       610.0000000
  free_energy:      -106.5879213
  entropy:           275.1004512
  heat_capacity:      99.1798547
  energy:             61.2233539

- temperature:       620.0000000
  free_energy:      -109.3470118
  entropy:           276.7133205
  heat_capacity:      99.1985975
  energy:             62.2152469

- temperature:       630.0000000
  free_energy:      -112.1221027
  entropy:           278.3006757
  heat_capacity:      99.2164655
  energy:             63.2073230

- temperature:       640.0000000
  free_energy:      -114.9129429
  entropy:           279.8633069
  heat_capacity:      99.2335124
  energy:             64.1995735

- temperature:       650.0000000
  free_energy:      -117.7192889
  entropy:           281.4019686
  heat_capacity:      99.2497873
  energy:             65.1919906

- temperature:       660.0000000
  free_energy:      -120.5409048
  entropy:           282.9173812
  heat_capacity:      99.2653363
  energy:             66.1845668

- temperature:       670.0000000
  free_energy:      -123.3775614
  entropy:           284.4102335
  heat_capacity:      99.2802016
  energy:             67.1772951

- temperature:       680.0000000
  free_energy:      -126.2290364
  entropy:           285.8811841
  heat_capacity:      99.2944227
  energy:             68.1701687

- temperature:       690.0000000
  free_energy:      -129.0951141
  entropy:           287.3308633
  heat_capacity:      99.3080361
  energy:             69.1631815

- temperature:       700.0000000
  free_energy:      -131.9755848
  entropy:           288.7598748
  heat_capacity:      99.3210761
  energy:             70.1563275

- temperature:       710.0000000
  free_energy:      -134.8702447
  entropy:           290.1687971
  heat_capacity:      99.3335741
  energy:             71.1496012

- temperature:       720.0000000
  free_energy:      -137.7788956
  entropy:           291.5581847
  heat_capacity:      99.3455598
  energy:             72.1429973

- temperature:       730.0000000
  free_energy:      -140.7013450
  entropy:           292.9285697
  heat_capacity:      99.3570607
  energy:             73.1365108

- temperature:       740.0000000
  free_energy:      -143.6374054
  entropy:           294.2804627
  heat_capacity:      99.3681026
  energy:             74.1301370

- temperature:       750.0000000
  free_energy:      -146.5868943
  entropy:           295.6143543
  heat_capacity:      99.3787096
  energy:             75.1238714

- temperature:       760.0000000
  free_energy:      -149.5496340
  entropy:           296.9307156
  heat_capacity:      99.3889040
  energy:             76.1177098

- temperature:       770.0000000
  free_energy:      -152.5254517
  entropy:           298.2299998
  heat_capacity:      99.3987071
  energy:             77.1116482

- temperature:       780.0000000
  free_energy:      -155.5141786
  entropy:           299.5126427
  heat_capacity:      99.4081385
  energy:             78.1056827

- temperature:       790.0000000
  free_energy:      -158.5156505
  entropy:           300.7790636
  heat_capacity:      99.4172168
  energy:             79.0998098

- temperature:       800.0000000
  free_energy:      -161.5297071
  entropy:           302.0296663
  heat_capacity:      99.4259593
  energy:             80.0940259

- temperature:       810.0000000
  free_energy:      -164.5561924
  entropy:           303.2648398
  heat_capacity:      99.4343824
  energy:             81.0883279

- temperature:       820.0000000
  free_energy:      -167.5949537
  entropy:           304.4849589
  heat_capacity:      99.4425014
  energy:             82.0827126

- temperature:       830.0000000
  free_energy:      -170.6458426
  entropy:           305.6903850
  heat_capacity:      99.4503307
  energy:             83.0771770

- temperature:       840.0000000
  free_energy:      -173.7087136
  entropy:           306.8814665
  heat_capacity:      99.4578840
  energy:             84.0717183

- temperature:       850.0000000
  free_energy:      -176.7834252
  entropy:           308.0585400
  heat_capacity:      99.4651740
  energy:             85.0663338

- temperature:       860.0000000
  free_energy:      -179.8698388
  entropy:           309.2219299
  heat_capacity:      99.4722129
  energy:             86.0610209

- temperature:       870.0000000
  free_energy:      -182.9678192
  entropy:           310.3719500
  heat_capacity:      99.4790119
  energy:             87.0557772

- temperature:       880.0000000
  free_energy:      -186.0772343
  entropy:           311.5089030
  heat_capacity:      99.4855820
  energy:             88.0506004

- temperature:       890.0000000
  free_energy:      -189.1979547
  entropy:           312.6330819
  heat_capacity:      99.4919331
  energy:             89.0454881

- temperature:       900.0000000
  free_energy:      -192.3298543
  entropy:           313.7447696
  heat_capacity:      99.4980750
  energy:             90.0404384

- temperature:       910.0000000
  free_energy:      -195.4728094
  entropy:           314.8442399
  heat_capacity:      99.5040167
  energy:             91.0354490

- temperature:       920.0000000
  free_energy:      -198.6266992
  entropy:           315.9317579
  heat_capacity:      99.5097668
  energy:             92.0305180

- temperature:       930.0000000
  free_energy:      -201.7914055
  entropy:           317.0075798
  heat_capacity:      99.5153334
  energy:             93.0256437

- temperature:       940.0000000
  free_energy:      -204.9668127
  entropy:           318.0719540
  heat_capacity:      99.5207243
  energy:             94.0208241

- temperature:       950.0000000
  free_energy:      -208.1528073
  entropy:           319.1251209
  heat_capacity:      99.5259467
  energy:             95.0160576

- temperature:       960.0000000
  free_energy:      -211.3492785
  entropy:           320.1673136
  heat_capacity:      99.5310077
  energy:             96.0113425

- temperature:       970.0000000
  free_energy:      -214.5561177
  entropy:           321.1987577
  heat_capacity:      99.5359137
  energy:             97.0066773

- temperature:       980.0000000
  free_energy:      -217.7732186
  entropy:           322.2196723
  heat_capacity:      99.5406711
  energy:             98.0020603

- temperature:       990.0000000
  free_energy:      -221.0004768
  entropy:           323.2302697
  heat_capacity:      99.5452857
  energy:             98.9974902

- temperature:      1000.0000000
  free_energy:      -224.2377902
  entropy:           324.2307558
  heat_capacity:      99.5497632
  energy:             99.9929656
