phonopy:
  version: "2.37.1"
  frequency_unit_conversion_factor: 15.633302
  symmetry_tolerance: 1.00000e-05

space_group:
  type: "P6/mmm"
  number: 191
  Hall_symbol: "-P 6 2"

primitive_matrix:
- [  1.000000000000000, -0.000000000000000,  0.000000000000000 ]
- [  0.000000000000000,  1.000000000000000,  0.000000000000000 ]
- [  0.000000000000000,  0.000000000000000,  1.000000000000000 ]

supercell_matrix:
- [   2,   0,   0 ]
- [   0,   2,   0 ]
- [   0,   0,   2 ]

primitive_cell:
  lattice:
  - [     6.265617071903034,     0.000000000000000,     0.000000000000000 ] # a
  - [    -3.132808192393929,     5.426183374381925,     0.000000000000000 ] # b
  - [     0.000000324603160,     0.000000134254321,     5.512093775472271 ] # c
  points:
  - symbol: Li # 1
    coordinates: [  0.999999997144564,  0.999999999330358,  0.000000000403760 ]
    mass: 6.940000
  - symbol: Sn # 2
    coordinates: [  0.666666667838347,  0.333333334068716,  0.000000002063572 ]
    mass: 118.710000
  - symbol: Sn # 3
    coordinates: [  0.333333328494035,  0.666666665139954,  0.999999997343388 ]
    mass: 118.710000
  - symbol: Sn # 4
    coordinates: [  0.999999982299163,  0.499999991587770,  0.500000000688258 ]
    mass: 118.710000
  - symbol: Sn # 5
    coordinates: [  0.500000014828357,  0.499999998255475,  0.499999999767917 ]
    mass: 118.710000
  - symbol: Sn # 6
    coordinates: [  0.500000009297013,  0.000000011876695,  0.499999999756736 ]
    mass: 118.710000
  reciprocal_lattice: # without 2pi
  - [     0.159601199454769,     0.092145788424401,    -0.000000011643130 ] # a*
  - [     0.000000000000000,     0.184291597059030,    -0.000000004488665 ] # b*
  - [     0.000000000000000,     0.000000000000000,     0.181419264753768 ] # c*

unit_cell:
  lattice:
  - [     6.265617071903033,     0.000000000000000,     0.000000000000000 ] # a
  - [    -3.132808192393928,     5.426183374381925,     0.000000000000000 ] # b
  - [     0.000000324603160,     0.000000134254321,     5.512093775472272 ] # c
  points:
  - symbol: Li # 1
    coordinates: [  0.999999997144564,  0.999999999330358,  0.000000000403760 ]
    mass: 6.940000
    reduced_to: 1
  - symbol: Sn # 2
    coordinates: [  0.666666667838347,  0.333333334068716,  0.000000002063572 ]
    mass: 118.710000
    reduced_to: 2
  - symbol: Sn # 3
    coordinates: [  0.333333328494035,  0.666666665139954,  0.999999997343388 ]
    mass: 118.710000
    reduced_to: 3
  - symbol: Sn # 4
    coordinates: [  0.999999982299164,  0.499999991587770,  0.500000000688257 ]
    mass: 118.710000
    reduced_to: 4
  - symbol: Sn # 5
    coordinates: [  0.500000014828358,  0.499999998255475,  0.499999999767916 ]
    mass: 118.710000
    reduced_to: 5
  - symbol: Sn # 6
    coordinates: [  0.500000009297013,  0.000000011876695,  0.499999999756736 ]
    mass: 118.710000
    reduced_to: 6

supercell:
  lattice:
  - [    12.531234143806065,     0.000000000000000,     0.000000000000000 ] # a
  - [    -6.265616384787856,    10.852366748763851,     0.000000000000000 ] # b
  - [     0.000000649206320,     0.000000268508641,    11.024187550944545 ] # c
  points:
  - symbol: Li # 1
    coordinates: [  0.499999998572282,  0.499999999665179,  0.000000000201880 ]
    mass: 6.940000
    reduced_to: 1
  - symbol: Li # 2
    coordinates: [  0.999999998572282,  0.499999999665179,  0.000000000201880 ]
    mass: 6.940000
    reduced_to: 1
  - symbol: Li # 3
    coordinates: [  0.499999998572282,  0.999999999665179,  0.000000000201880 ]
    mass: 6.940000
    reduced_to: 1
  - symbol: Li # 4
    coordinates: [  0.999999998572282,  0.999999999665179,  0.000000000201880 ]
    mass: 6.940000
    reduced_to: 1
  - symbol: Li # 5
    coordinates: [  0.499999998572282,  0.499999999665179,  0.500000000201880 ]
    mass: 6.940000
    reduced_to: 1
  - symbol: Li # 6
    coordinates: [  0.999999998572282,  0.499999999665179,  0.500000000201880 ]
    mass: 6.940000
    reduced_to: 1
  - symbol: Li # 7
    coordinates: [  0.499999998572282,  0.999999999665179,  0.500000000201880 ]
    mass: 6.940000
    reduced_to: 1
  - symbol: Li # 8
    coordinates: [  0.999999998572282,  0.999999999665179,  0.500000000201880 ]
    mass: 6.940000
    reduced_to: 1
  - symbol: Sn # 9
    coordinates: [  0.333333333919174,  0.166666667034358,  0.000000001031786 ]
    mass: 118.710000
    reduced_to: 9
  - symbol: Sn # 10
    coordinates: [  0.833333333919174,  0.166666667034358,  0.000000001031786 ]
    mass: 118.710000
    reduced_to: 9
  - symbol: Sn # 11
    coordinates: [  0.333333333919174,  0.666666667034358,  0.000000001031786 ]
    mass: 118.710000
    reduced_to: 9
  - symbol: Sn # 12
    coordinates: [  0.833333333919174,  0.666666667034358,  0.000000001031786 ]
    mass: 118.710000
    reduced_to: 9
  - symbol: Sn # 13
    coordinates: [  0.333333333919174,  0.166666667034358,  0.500000001031786 ]
    mass: 118.710000
    reduced_to: 9
  - symbol: Sn # 14
    coordinates: [  0.833333333919174,  0.166666667034358,  0.500000001031786 ]
    mass: 118.710000
    reduced_to: 9
  - symbol: Sn # 15
    coordinates: [  0.333333333919174,  0.666666667034358,  0.500000001031786 ]
    mass: 118.710000
    reduced_to: 9
  - symbol: Sn # 16
    coordinates: [  0.833333333919174,  0.666666667034358,  0.500000001031786 ]
    mass: 118.710000
    reduced_to: 9
  - symbol: Sn # 17
    coordinates: [  0.166666664247018,  0.333333332569977,  0.499999998671694 ]
    mass: 118.710000
    reduced_to: 17
  - symbol: Sn # 18
    coordinates: [  0.666666664247018,  0.333333332569977,  0.499999998671694 ]
    mass: 118.710000
    reduced_to: 17
  - symbol: Sn # 19
    coordinates: [  0.166666664247018,  0.833333332569977,  0.499999998671694 ]
    mass: 118.710000
    reduced_to: 17
  - symbol: Sn # 20
    coordinates: [  0.666666664247018,  0.833333332569977,  0.499999998671694 ]
    mass: 118.710000
    reduced_to: 17
  - symbol: Sn # 21
    coordinates: [  0.166666664247018,  0.333333332569977,  0.999999998671694 ]
    mass: 118.710000
    reduced_to: 17
  - symbol: Sn # 22
    coordinates: [  0.666666664247018,  0.333333332569977,  0.999999998671694 ]
    mass: 118.710000
    reduced_to: 17
  - symbol: Sn # 23
    coordinates: [  0.166666664247018,  0.833333332569977,  0.999999998671694 ]
    mass: 118.710000
    reduced_to: 17
  - symbol: Sn # 24
    coordinates: [  0.666666664247018,  0.833333332569977,  0.999999998671694 ]
    mass: 118.710000
    reduced_to: 17
  - symbol: Sn # 25
    coordinates: [  0.499999991149582,  0.249999995793885,  0.250000000344129 ]
    mass: 118.710000
    reduced_to: 25
  - symbol: Sn # 26
    coordinates: [  0.999999991149582,  0.249999995793885,  0.250000000344129 ]
    mass: 118.710000
    reduced_to: 25
  - symbol: Sn # 27
    coordinates: [  0.499999991149582,  0.749999995793885,  0.250000000344129 ]
    mass: 118.710000
    reduced_to: 25
  - symbol: Sn # 28
    coordinates: [  0.999999991149582,  0.749999995793885,  0.250000000344129 ]
    mass: 118.710000
    reduced_to: 25
  - symbol: Sn # 29
    coordinates: [  0.499999991149582,  0.249999995793885,  0.750000000344129 ]
    mass: 118.710000
    reduced_to: 25
  - symbol: Sn # 30
    coordinates: [  0.999999991149582,  0.249999995793885,  0.750000000344129 ]
    mass: 118.710000
    reduced_to: 25
  - symbol: Sn # 31
    coordinates: [  0.499999991149582,  0.749999995793885,  0.750000000344129 ]
    mass: 118.710000
    reduced_to: 25
  - symbol: Sn # 32
    coordinates: [  0.999999991149582,  0.749999995793885,  0.750000000344129 ]
    mass: 118.710000
    reduced_to: 25
  - symbol: Sn # 33
    coordinates: [  0.250000007414179,  0.249999999127738,  0.249999999883958 ]
    mass: 118.710000
    reduced_to: 33
  - symbol: Sn # 34
    coordinates: [  0.750000007414179,  0.249999999127738,  0.249999999883958 ]
    mass: 118.710000
    reduced_to: 33
  - symbol: Sn # 35
    coordinates: [  0.250000007414179,  0.749999999127738,  0.249999999883958 ]
    mass: 118.710000
    reduced_to: 33
  - symbol: Sn # 36
    coordinates: [  0.750000007414179,  0.749999999127738,  0.249999999883958 ]
    mass: 118.710000
    reduced_to: 33
  - symbol: Sn # 37
    coordinates: [  0.250000007414179,  0.249999999127738,  0.749999999883958 ]
    mass: 118.710000
    reduced_to: 33
  - symbol: Sn # 38
    coordinates: [  0.750000007414179,  0.249999999127738,  0.749999999883958 ]
    mass: 118.710000
    reduced_to: 33
  - symbol: Sn # 39
    coordinates: [  0.250000007414179,  0.749999999127738,  0.749999999883958 ]
    mass: 118.710000
    reduced_to: 33
  - symbol: Sn # 40
    coordinates: [  0.750000007414179,  0.749999999127738,  0.749999999883958 ]
    mass: 118.710000
    reduced_to: 33
  - symbol: Sn # 41
    coordinates: [  0.250000004648506,  0.000000005938347,  0.249999999878368 ]
    mass: 118.710000
    reduced_to: 41
  - symbol: Sn # 42
    coordinates: [  0.750000004648506,  0.000000005938347,  0.249999999878368 ]
    mass: 118.710000
    reduced_to: 41
  - symbol: Sn # 43
    coordinates: [  0.250000004648506,  0.500000005938347,  0.249999999878368 ]
    mass: 118.710000
    reduced_to: 41
  - symbol: Sn # 44
    coordinates: [  0.750000004648506,  0.500000005938347,  0.249999999878368 ]
    mass: 118.710000
    reduced_to: 41
  - symbol: Sn # 45
    coordinates: [  0.250000004648506,  0.000000005938347,  0.749999999878368 ]
    mass: 118.710000
    reduced_to: 41
  - symbol: Sn # 46
    coordinates: [  0.750000004648506,  0.000000005938347,  0.749999999878368 ]
    mass: 118.710000
    reduced_to: 41
  - symbol: Sn # 47
    coordinates: [  0.250000004648506,  0.500000005938347,  0.749999999878368 ]
    mass: 118.710000
    reduced_to: 41
  - symbol: Sn # 48
    coordinates: [  0.750000004648506,  0.500000005938347,  0.749999999878368 ]
    mass: 118.710000
    reduced_to: 41

displacements:
- atom:    1
  displacement:
    [   0.0075081153873328,  0.0000000001608775,  0.0066051648980549 ]
  forces:
  - [   0.0054565859027207, -0.0000001786481221,  0.0064838374964893 ]
  - [   0.0002202335745096, -0.0000007338039723, -0.0001335774286417 ]
  - [   0.0000777039676905, -0.0000824865419418, -0.0001334302796749 ]
  - [   0.0000780876725912,  0.0000825382303447, -0.0001331061794190 ]
  - [  -0.0003032889217138,  0.0000002998858690,  0.0004960048827343 ]
  - [   0.0001662261784077,  0.0000001899898052,  0.0001325190387433 ]
  - [   0.0000686515122652, -0.0000571992713958,  0.0001324594340986 ]
  - [   0.0000681150704622,  0.0000561315100640,  0.0001322862080997 ]
  - [   0.0000235993738897, -0.0000069700181484,  0.0001482946827309 ]
  - [   0.0001086367192329,  0.0000006910413504,  0.0000119749111036 ]
  - [  -0.0001200074621011,  0.0000830171629786,  0.0001448376278859 ]
  - [  -0.0000942188780755, -0.0000690822489560,  0.0001503256789874 ]
  - [  -0.0000545619332115,  0.0000005802139640,  0.0001109734585043 ]
  - [  -0.0000463145079266,  0.0000000200234354, -0.0000100440647657 ]
  - [   0.0000496660031786, -0.0000604833476245,  0.0001094931358239 ]
  - [   0.0000491595419589,  0.0000593229196966,  0.0001104006514652 ]
  - [   0.0000507145996380,  0.0000605750828981,  0.0001081441005226 ]
  - [   0.0000498393019370, -0.0000592018477619,  0.0001084577743313 ]
  - [  -0.0000449487306469, -0.0000002007000148, -0.0000138140076160 ]
  - [  -0.0000536238658242, -0.0000007506459951,  0.0001065908945748 ]
  - [  -0.0001211529597640, -0.0000832718797028,  0.0001435644517187 ]
  - [  -0.0000939189339988,  0.0000678105279803,  0.0001462296932004 ]
  - [   0.0001087550626835, -0.0000001159496605,  0.0000115863222163 ]
  - [   0.0000219906869461,  0.0000064568594098,  0.0001451246789657 ]
  - [  -0.0005955994129181,  0.0011917296797037, -0.0011627802159637 ]
  - [   0.0000012777745724,  0.0000426471233368, -0.0000662442180328 ]
  - [   0.0002297833561897, -0.0002401098608971, -0.0002363603853155 ]
  - [   0.0000340454280376,  0.0000588297843933,  0.0000604486340308 ]
  - [   0.0002284049987793, -0.0002425760030746, -0.0002429531887174 ]
  - [   0.0000319592654705,  0.0000589936971664,  0.0000617358600721 ]
  - [  -0.0006019920110703,  0.0011925622820854, -0.0011728829704225 ]
  - [   0.0000003725290298,  0.0000394433736801, -0.0000677451025695 ]
  - [   0.0002281554043293,  0.0002409815788269, -0.0002375455806032 ]
  - [   0.0000335313379765, -0.0000600442290306,  0.0000582184438827 ]
  - [   0.0000000894069672, -0.0000422205775976, -0.0000665262341499 ]
  - [  -0.0005972832441330, -0.0011919382959604, -0.0011642344761640 ]
  - [  -0.0006025377660990, -0.0011933557689190, -0.0011732584098354 ]
  - [   0.0000010943040252, -0.0000410508364439, -0.0000665967818350 ]
  - [   0.0000326018780470, -0.0000600162893534,  0.0000606632092968 ]
  - [   0.0002276152372360,  0.0002425312995911, -0.0002452577464283 ]
  - [  -0.0000703837722540, -0.0000173404041561, -0.0000036075330172 ]
  - [  -0.0000714045017958,  0.0000186448596651, -0.0000029284797165 ]
  - [  -0.0001833233982325, -0.0000001993363696,  0.0002215463464381 ]
  - [  -0.0018319021910429,  0.0000006891468161, -0.0016304957680404 ]
  - [  -0.0000697560608387,  0.0000191624221770, -0.0000071320682764 ]
  - [  -0.0000699777156115, -0.0000161756888701, -0.0000066568609327 ]
  - [  -0.0018412917852402,  0.0000009573996067, -0.0016381111927330 ]
  - [  -0.0001792963594198,  0.0000008642673492,  0.0002195617416874 ]
- atom:    9
  displacement:
    [   0.0075081153873328,  0.0000000001608775,  0.0066051648980549 ]
  forces:
  - [   0.0000232182937907,  0.0000038837051761,  0.0001460847415728 ]
  - [   0.0001087188720703, -0.0000017507962866,  0.0000108781559902 ]
  - [  -0.0000924821943045,  0.0000680282246321,  0.0001459833729314 ]
  - [  -0.0001213550567627, -0.0000827026087791,  0.0001457410835428 ]
  - [  -0.0000542737543583,  0.0000020693987608,  0.0001088596909540 ]
  - [  -0.0000455938279629,  0.0000005438923836, -0.0000114652921184 ]
  - [   0.0000514183193445, -0.0000617497134954,  0.0001096438936656 ]
  - [   0.0000485423952341,  0.0000585417728871,  0.0001080196670955 ]
  - [  -0.0039542005397379, -0.0000302782282233, -0.0167121626436710 ]
  - [   0.0005129508208483,  0.0000017853453755, -0.0000168829046743 ]
  - [  -0.0000028845711313, -0.0002994621172547, -0.0000172002382897 ]
  - [  -0.0000019390136003,  0.0002958495169878, -0.0000151093772729 ]
  - [  -0.0004498811613303, -0.0000016475096345, -0.0001883822405944 ]
  - [  -0.0001950070291059, -0.0000005695037544,  0.0000188564608834 ]
  - [  -0.0000019918982161,  0.0001111445017159,  0.0000171597930603 ]
  - [  -0.0000026452939892, -0.0001112082973123,  0.0000193115301954 ]
  - [   0.0003264904371463, -0.0001630643382668,  0.0007858155295253 ]
  - [   0.0003398035478313,  0.0001720595173538,  0.0008072553901002 ]
  - [   0.0000431365588156, -0.0000068461522460,  0.0007947203121148 ]
  - [  -0.0000293162884191, -0.0000003841705620, -0.0000074706977102 ]
  - [   0.0005304517690092, -0.0002625123597682,  0.0001019627525238 ]
  - [   0.0005869809538126,  0.0002937372773886,  0.0000975999573711 ]
  - [   0.0000771711784182, -0.0000067092478275,  0.0001012666398310 ]
  - [   0.0001142484252341, -0.0000009979121387,  0.0000036100100260 ]
  - [   0.0022649541497231,  0.0014969725161791,  0.0042019477114081 ]
  - [  -0.0000429227948189,  0.0000150352716446, -0.0001912803272717 ]
  - [   0.0000117458403111,  0.0000496134161949,  0.0000068902472776 ]
  - [   0.0000502988696098, -0.0001447051763535, -0.0001148810915765 ]
  - [  -0.0009442865848541, -0.0003647319972515,  0.0007883000653237 ]
  - [   0.0000660903751850, -0.0001242384314537, -0.0000116404844448 ]
  - [  -0.0000745803117752,  0.0000001043081284, -0.0000047858338803 ]
  - [  -0.0000206790864468,  0.0000137984752655, -0.0000924248015508 ]
  - [  -0.0009421985596418,  0.0003632996231318,  0.0007843899074942 ]
  - [   0.0000516586005688,  0.0001265462487936, -0.0000168924889294 ]
  - [  -0.0000237580388784, -0.0000104065984488, -0.0000920450474950 ]
  - [  -0.0000761374831200, -0.0000021643936634, -0.0000049466402743 ]
  - [   0.0021695625036955, -0.0014254804700613,  0.0040247128345072 ]
  - [  -0.0000442229211330, -0.0000143740326166, -0.0001922695664689 ]
  - [   0.0000475533306599,  0.0001476425677538, -0.0001131313620135 ]
  - [   0.0000099912285805, -0.0000516586005688,  0.0000036231940612 ]
  - [  -0.0003205239772797, -0.0018468248890713,  0.0024777608923614 ]
  - [  -0.0000774096697569, -0.0000495856947964,  0.0000019856411200 ]
  - [   0.0000316537916660,  0.0000095925779533, -0.0001864125370048 ]
  - [   0.0001995712518692,  0.0000041462026275, -0.0000311153635266 ]
  - [  -0.0003055687993765,  0.0018026283942163,  0.0024186382070184 ]
  - [  -0.0000774022191763,  0.0000504772033310, -0.0000025521731004 ]
  - [   0.0002058222889900, -0.0000154729932547, -0.0000246517593041 ]
  - [   0.0000292081385851, -0.0000080168247223, -0.0001833462156355 ]
- atom:   25
  displacement:
    [   0.0075081153873328,  0.0000000001608775,  0.0066051648980549 ]
  forces:
  - [  -0.0006005828035995,  0.0011886880965903, -0.0011869349982589 ]
  - [  -0.0000377427786589,  0.0000192114166566, -0.0000250988341577 ]
  - [   0.0002250503748655, -0.0002401780802757, -0.0002453138004057 ]
  - [   0.0000728368759155,  0.0000811337959021,  0.0000111929439299 ]
  - [   0.0002199523150921, -0.0002221148461103, -0.0002245947689516 ]
  - [   0.0000742115080357,  0.0000850316137075,  0.0000150252490130 ]
  - [  -0.0005863141268492,  0.0011749926488847, -0.0011642023455352 ]
  - [  -0.0000407528132200,  0.0000154941772053, -0.0000208772398764 ]
  - [   0.0020473964978009,  0.0013524424284697,  0.0041363448835909 ]
  - [  -0.0000694284317433, -0.0000311406329274, -0.0001673723745625 ]
  - [  -0.0000269925567409,  0.0000288505107164,  0.0000487576253363 ]
  - [   0.0000042598694563, -0.0001440667547286, -0.0000645187756163 ]
  - [  -0.0008440040983260, -0.0003082891926169,  0.0006780980620533 ]
  - [   0.0000840122083900, -0.0000970652326941, -0.0000423974706791 ]
  - [  -0.0000371251153410,  0.0000228984281421, -0.0000489239500894 ]
  - [   0.0000229949146160,  0.0000229524448514, -0.0001421842462150 ]
  - [  -0.0000720139869372, -0.0000262116082013, -0.0001585586724104 ]
  - [   0.0021546937059611,  0.0014357217587531,  0.0043580234050751 ]
  - [   0.0000045022870836, -0.0001453119330108, -0.0000654191753711 ]
  - [  -0.0000269857700914,  0.0000277678482234,  0.0000455254121334 ]
  - [   0.0000864926842041, -0.0000980258919299, -0.0000497383589391 ]
  - [  -0.0008088129106909, -0.0002842801623046,  0.0006259238580242 ]
  - [   0.0000229510351346,  0.0000284733250737, -0.0001439740299247 ]
  - [  -0.0000373424190911,  0.0000231321901083, -0.0000491891842103 ]
  - [  -0.0246091783046722, -0.0134767070412636, -0.0044980971142650 ]
  - [   0.0016041994094849, -0.0000800341367722,  0.0002040914114332 ]
  - [  -0.0000788792967796, -0.0001933053135872, -0.0001467981201131 ]
  - [   0.0005260221660137,  0.0005394890904427,  0.0002039559185505 ]
  - [   0.0000889822840691,  0.0001702681183815, -0.0004174063215032 ]
  - [  -0.0001150481402874, -0.0000216364860535, -0.0000840320717543 ]
  - [   0.0000862292945385, -0.0000726431608200,  0.0001489974092692 ]
  - [  -0.0000282414257526, -0.0000750944018364, -0.0000858738785610 ]
  - [   0.0087150102481246, -0.0007437150925398, -0.0013862823834643 ]
  - [   0.0089942421764135, -0.0007428824901581, -0.0014413727913052 ]
  - [  -0.0000156499445438, -0.0002711880952120,  0.0000034610311559 ]
  - [  -0.0000191926956177, -0.0002713426947594,  0.0000024593543912 ]
  - [   0.0003892974928021, -0.0002405736595392,  0.0010171030880883 ]
  - [   0.0003895666450262, -0.0002469439059496,  0.0010267528705299 ]
  - [  -0.0000289687886834, -0.0000722035765648,  0.0000323437852785 ]
  - [  -0.0000301823019981, -0.0000740848481655,  0.0000297537771985 ]
  - [   0.0014226455241442,  0.0050512449815869, -0.0013996692141518 ]
  - [  -0.0001785792410374,  0.0003656258631963,  0.0000041911298467 ]
  - [  -0.0001722816377878,  0.0003587714745663, -0.0000024756191124 ]
  - [   0.0014012716710567,  0.0050328858196735, -0.0014293005224317 ]
  - [  -0.0001164954155684,  0.0005363761447370,  0.0010097388876602 ]
  - [   0.0000323522835970,  0.0000382042344427,  0.0000289108138531 ]
  - [   0.0000341404229403,  0.0000360310077667,  0.0000308438902721 ]
  - [  -0.0001224819570780,  0.0005433037877083,  0.0010291341459379 ]

force_constants:
  format: "full"
  shape: [ 48, 48 ]
  elements:
  - # (1, 1)
    - [    -0.726737504092045,     0.000000001511211,    -0.000000006319563 ]
    - [     0.000000001511211,    -0.726737505215400,    -0.000000002688068 ]
    - [    -0.000000006319563,    -0.000000002688068,    -0.981688008924657 ]
  - # (1, 2)
    - [    -0.029337516051308,     0.000000001583051,     0.000000001491049 ]
    - [     0.000000002390256,    -0.004009064032778,    -0.000000000777033 ]
    - [     0.000000002884122,    -0.000000000127392,     0.020135396627236 ]
  - # (1, 3)
    - [    -0.010341176699219,     0.010967543010428,     0.000000001781587 ]
    - [     0.010967542105009,    -0.023005405979192,    -0.000000000496665 ]
    - [     0.000000001603477,     0.000000000624860,     0.020135396627236 ]
  - # (1, 4)
    - [    -0.010341177540636,    -0.010967540332706,     0.000000002234257 ]
    - [    -0.010967541572022,    -0.023005403586221,     0.000000001289482 ]
    - [     0.000000002211573,     0.000000001214186,     0.020135396903197 ]
  - # (1, 5)
    - [     0.040415699200866,     0.000000001178526,    -0.000000002215428 ]
    - [     0.000000000520884,     0.040415698222660,    -0.000000000990617 ]
    - [    -0.000000002215428,    -0.000000000990617,    -0.075150063682787 ]
  - # (1, 6)
    - [    -0.022132170670043,     0.000000001952711,     0.000000001446921 ]
    - [     0.000000001839923,    -0.004729648406172,     0.000000000502883 ]
    - [     0.000000001244860,    -0.000000000577129,    -0.020104757769611 ]
  - # (1, 7)
    - [    -0.009080278745206,     0.007535515649056,     0.000000000769431 ]
    - [     0.007535514348345,    -0.017781542095758,     0.000000000321863 ]
    - [     0.000000000526438,     0.000000000021562,    -0.020104757769611 ]
  - # (1, 8)
    - [    -0.009080279034536,    -0.007535513316245,     0.000000000970478 ]
    - [    -0.007535512582633,    -0.017781541076873,     0.000000000634759 ]
    - [     0.000000000947794,     0.000000000559463,    -0.020104758045571 ]
  - # (1, 9)
    - [    -0.003086572378229,     0.000000001532511,    -0.000000000065634 ]
    - [     0.000000001311554,     0.020091674561072,    -0.000000000473135 ]
    - [    -0.000000001470987,    -0.000000001110927,    -0.022162128096937 ]
  - # (1, 10)
    - [    -0.014466315827527,     0.000000002267005,     0.000000000881744 ]
    - [     0.000000001999076,    -0.014466316571532,     0.000000000685459 ]
    - [    -0.000000000267698,     0.000000001754526,    -0.001748272694194 ]
  - # (1, 11)
    - [     0.014297111620706,    -0.010036474958810,    -0.000000000412604 ]
    - [    -0.010036475503082,     0.002707989352796,     0.000000000013507 ]
    - [    -0.000000001888260,    -0.000000000638277,    -0.022162129425040 ]
  - # (1, 12)
    - [     0.014297112922779,     0.010036474873980,     0.000000000479626 ]
    - [     0.010036475368516,     0.002707987909203,     0.000000001020471 ]
    - [    -0.000000001159578,     0.000000000798807,    -0.022162128096937 ]
  - # (1, 13)
    - [     0.007222893136244,    -0.000000000338954,    -0.000000000204590 ]
    - [    -0.000000000721848,    -0.011250893413065,    -0.000000000023350 ]
    - [    -0.000000001607122,    -0.000000000659998,    -0.016524006954946 ]
  - # (1, 14)
    - [     0.006087457823042,     0.000000001101620,     0.000000000362052 ]
    - [     0.000000000671693,     0.006087458410933,     0.000000000369503 ]
    - [    -0.000000000853055,     0.000000000898682,     0.001737869809275 ]
  - # (1, 15)
    - [    -0.006632445272474,     0.007999384726064,     0.000000000148634 ]
    - [     0.007999384667727,     0.002604446583263,    -0.000000000448222 ]
    - [    -0.000000001324233,    -0.000000001098820,    -0.016524005626842 ]
  - # (1, 16)
    - [    -0.006632445581225,    -0.007999382099211,     0.000000001291345 ]
    - [    -0.007999382965098,     0.002604446237469,     0.000000001375084 ]
    - [     0.000000001335933,     0.000000002010152,    -0.016524006954946 ]
  - # (1, 17)
    - [    -0.006632445581225,    -0.007999382099211,     0.000000001291345 ]
    - [    -0.007999382965098,     0.002604446237469,     0.000000001375084 ]
    - [     0.000000001335933,     0.000000002010152,    -0.016524006954946 ]
  - # (1, 18)
    - [    -0.006632445272474,     0.007999384726064,     0.000000000148634 ]
    - [     0.007999384667727,     0.002604446583263,    -0.000000000448222 ]
    - [    -0.000000001324233,    -0.000000001098820,    -0.016524005626842 ]
  - # (1, 19)
    - [     0.006087457823042,     0.000000001101620,     0.000000000362052 ]
    - [     0.000000000671693,     0.006087458410933,     0.000000000369503 ]
    - [    -0.000000000853055,     0.000000000898682,     0.001737869809275 ]
  - # (1, 20)
    - [     0.007222893136244,    -0.000000000338954,    -0.000000000204590 ]
    - [    -0.000000000721848,    -0.011250893413064,    -0.000000000023350 ]
    - [    -0.000000001607122,    -0.000000000659998,    -0.016524006954946 ]
  - # (1, 21)
    - [     0.014297112922779,     0.010036474873980,     0.000000000479626 ]
    - [     0.010036475368516,     0.002707987909203,     0.000000001020471 ]
    - [    -0.000000001159578,     0.000000000798807,    -0.022162128096937 ]
  - # (1, 22)
    - [     0.014297111620706,    -0.010036474958810,    -0.000000000412604 ]
    - [    -0.010036475503082,     0.002707989352796,     0.000000000013507 ]
    - [    -0.000000001888260,    -0.000000000638277,    -0.022162129425040 ]
  - # (1, 23)
    - [    -0.014466315827527,     0.000000002267005,     0.000000000881744 ]
    - [     0.000000001999076,    -0.014466316571532,     0.000000000685459 ]
    - [    -0.000000000267698,     0.000000001754526,    -0.001748272694194 ]
  - # (1, 24)
    - [    -0.003086572378229,     0.000000001532511,    -0.000000000065634 ]
    - [     0.000000001311554,     0.020091674561072,    -0.000000000473135 ]
    - [    -0.000000001470987,    -0.000000001110927,    -0.022162128096937 ]
  - # (1, 25)
    - [     0.024698605025491,    -0.063331647961007,     0.061762990332231 ]
    - [    -0.063331648005718,     0.097827694906470,    -0.106976643346708 ]
    - [     0.062651451612810,    -0.108515495442639,     0.106756242585580 ]
  - # (1, 26)
    - [    -0.002267848117673,    -0.006714184391206,     0.008508745759525 ]
    - [    -0.006714184760074,     0.005485025375715,     0.004912527178864 ]
    - [     0.002401432966867,     0.001386466614105,     0.000650736712823 ]
  - # (1, 27)
    - [     0.024698601387953,    -0.063331649465474,    -0.061762988304222 ]
    - [    -0.063331641705318,     0.097827697512286,     0.106976645816924 ]
    - [    -0.062651442972077,     0.108515502008135,     0.106756245695085 ]
  - # (1, 28)
    - [    -0.002267848615905,    -0.006714184597272,    -0.008508744340594 ]
    - [    -0.006714185047728,     0.005485025256742,    -0.004912525946065 ]
    - [    -0.002401431167949,    -0.001386467223885,     0.000650738129638 ]
  - # (1, 29)
    - [     0.024698601387953,    -0.063331649465474,    -0.061762988304222 ]
    - [    -0.063331641705318,     0.097827697512286,     0.106976645816924 ]
    - [    -0.062651442972077,     0.108515502008135,     0.106756245695085 ]
  - # (1, 30)
    - [    -0.002267848615905,    -0.006714184597272,    -0.008508744340594 ]
    - [    -0.006714185047728,     0.005485025256742,    -0.004912525946065 ]
    - [    -0.002401431167949,    -0.001386467223885,     0.000650738129638 ]
  - # (1, 31)
    - [     0.024698605025491,    -0.063331647961007,     0.061762990332231 ]
    - [    -0.063331648005718,     0.097827694906470,    -0.106976643346708 ]
    - [     0.062651451612810,    -0.108515495442639,     0.106756242585580 ]
  - # (1, 32)
    - [    -0.002267848117673,    -0.006714184391206,     0.008508745759525 ]
    - [    -0.006714184760074,     0.005485025375715,     0.004912527178864 ]
    - [     0.002401432966867,     0.001386466614105,     0.000650736712823 ]
  - # (1, 33)
    - [     0.024698601278715,     0.063331642439316,    -0.061762988697216 ]
    - [     0.063331647678069,     0.097827685776116,    -0.106976639026405 ]
    - [    -0.062651455196223,    -0.108515499722173,     0.106756253548749 ]
  - # (1, 34)
    - [    -0.002267848073262,     0.006714186335392,    -0.008508741898835 ]
    - [     0.006714186686479,     0.005485024514206,     0.004912526581917 ]
    - [    -0.002401431346534,     0.001386467124620,     0.000650737856532 ]
  - # (1, 35)
    - [    -0.002267847575030,     0.006714186541458,     0.008508743957793 ]
    - [     0.006714186398824,     0.005485024395233,    -0.004912526681849 ]
    - [     0.002401433655570,    -0.001386467568932,     0.000650736985928 ]
  - # (1, 36)
    - [     0.024698604916253,     0.063331643943785,     0.061762987250954 ]
    - [     0.063331653978469,     0.097827688381932,     0.106976632841890 ]
    - [     0.062651456502603,     0.108515489622410,     0.106756234731917 ]
  - # (1, 37)
    - [     0.024698604916253,     0.063331643943785,     0.061762987250954 ]
    - [     0.063331653978469,     0.097827688381932,     0.106976632841890 ]
    - [     0.062651456502603,     0.108515489622410,     0.106756234731917 ]
  - # (1, 38)
    - [    -0.002267847575030,     0.006714186541458,     0.008508743957793 ]
    - [     0.006714186398824,     0.005485024395233,    -0.004912526681849 ]
    - [     0.002401433655570,    -0.001386467568932,     0.000650736985928 ]
  - # (1, 39)
    - [    -0.002267848073262,     0.006714186335392,    -0.008508741898835 ]