# Thermal properties / unit cell (natom)

unit:
  temperature:   K
  free_energy:   kJ/mol
  entropy:       J/K/mol
  heat_capacity: J/K/mol

natom: 12   
cutoff_frequency: 0.00000
num_modes: 628452
num_integrated_modes: 628449

zero_point_energy:      35.8167568

thermal_properties:
- temperature:         0.0000000
  free_energy:        35.8167568
  entropy:             0.0000000
  heat_capacity:       0.0000000
  energy:             35.8167568

- temperature:        10.0000000
  free_energy:        35.8150260
  entropy:             0.7477205
  heat_capacity:       2.5815090
  energy:             35.8225032

- temperature:        20.0000000
  free_energy:        35.7789374
  entropy:             8.2930876
  heat_capacity:      26.2841828
  energy:             35.9447991

- temperature:        30.0000000
  free_energy:        35.6152928
  entropy:            25.6458328
  heat_capacity:      61.2682268
  energy:             36.3846678

- temperature:        40.0000000
  free_energy:        35.2518561
  entropy:            47.3723976
  heat_capacity:      89.8669647
  energy:             37.1467520

- temperature:        50.0000000
  free_energy:        34.6653724
  entropy:            69.9187746
  heat_capacity:     112.2794760
  energy:             38.1613112

- temperature:        60.0000000
  free_energy:        33.8547597
  entropy:            92.1069212
  heat_capacity:     131.2862419
  energy:             39.3811750

- temperature:        70.0000000
  free_energy:        32.8254229
  entropy:           113.6447262
  heat_capacity:     148.3164120
  energy:             40.7805537

- temperature:        80.0000000
  free_energy:        31.5842171
  entropy:           134.4780400
  heat_capacity:     163.8227784
  energy:             42.3424603

- temperature:        90.0000000
  free_energy:        30.1382345
  entropy:           154.5997291
  heat_capacity:     177.8878468
  energy:             44.0522101

- temperature:       100.0000000
  free_energy:        28.4945991
  entropy:           174.0085373
  heat_capacity:     190.5248665
  energy:             45.8954528

- temperature:       110.0000000
  free_energy:        26.6604358
  entropy:           192.7059001
  heat_capacity:     201.7765918
  energy:             47.8580848

- temperature:       120.0000000
  free_energy:        24.6428311
  entropy:           210.6984620
  heat_capacity:     211.7278516
  energy:             49.9266466

- temperature:       130.0000000
  free_energy:        22.4487730
  entropy:           227.9993100
  heat_capacity:     220.4919202
  energy:             52.0886833

- temperature:       140.0000000
  free_energy:        20.0850875
  entropy:           244.6275597
  heat_capacity:     228.1942204
  energy:             54.3329458

- temperature:       150.0000000
  free_energy:        17.5583845
  entropy:           260.6070861
  heat_capacity:     234.9601979
  energy:             56.6494475

- temperature:       160.0000000
  free_energy:        14.8750179
  entropy:           275.9650368
  heat_capacity:     240.9079944
  energy:             59.0294237

- temperature:       170.0000000
  free_energy:        12.0410590
  entropy:           290.7304693
  heat_capacity:     246.1447928
  energy:             61.4652387

- temperature:       180.0000000
  free_energy:         9.0622840
  entropy:           304.9332416
  heat_capacity:     250.7655487
  energy:             63.9502675

- temperature:       190.0000000
  free_energy:         5.9441702
  entropy:           318.6031763
  heat_capacity:     254.8531171
  energy:             66.4787737

- temperature:       200.0000000
  free_energy:         2.6918992
  entropy:           331.7694659
  heat_capacity:     258.4791057
  energy:             69.0457923

- temperature:       210.0000000
  free_energy:        -0.6896343
  entropy:           344.4602743
  heat_capacity:     261.7050455
  energy:             71.6470233

- temperature:       220.0000000
  free_energy:        -4.1958112
  entropy:           356.7024884
  heat_capacity:     264.5836428
  energy:             74.2787363

- temperature:       230.0000000
  free_energy:        -7.8222739
  entropy:           368.5215791
  heat_capacity:     267.1599853
  energy:             76.9376893

- temperature:       240.0000000
  free_energy:       -11.5649125
  entropy:           379.9415422
  heat_capacity:     269.4726424
  energy:             79.6210577

- temperature:       250.0000000
  free_energy:       -15.4198495
  entropy:           390.9848933
  heat_capacity:     271.5546366
  energy:             82.3263738

- temperature:       260.0000000
  free_energy:       -19.3834253
  entropy:           401.6726988
  heat_capacity:     273.4342850
  energy:             85.0514763

- temperature:       270.0000000
  free_energy:       -23.4521841
  entropy:           412.0246317
  heat_capacity:     275.1359174
  energy:             87.7944665

- temperature:       280.0000000
  free_energy:       -27.6228597
  entropy:           422.0590399
  heat_capacity:     276.6804867
  energy:             90.5536715

- temperature:       290.0000000
  free_energy:       -31.8923636
  entropy:           431.7930235
  heat_capacity:     278.0860820
  energy:             93.3276133

- temperature:       300.0000000
  free_energy:       -36.2577720
  entropy:           441.2425142
  heat_capacity:     279.3683620
  energy:             96.1149823

- temperature:       310.0000000
  free_energy:       -40.7163151
  entropy:           450.4223551
  heat_capacity:     280.5409183
  energy:             98.9146149

- temperature:       320.0000000
  free_energy:       -45.2653665
  entropy:           459.3463780
  heat_capacity:     281.6155805
  energy:            101.7254745

- temperature:       330.0000000
  free_energy:       -49.9024330
  entropy:           468.0274783
  heat_capacity:     282.6026735
  energy:            104.5466348

- temperature:       340.0000000
  free_energy:       -54.6251465
  entropy:           476.4776847
  heat_capacity:     283.5112336
  energy:            107.3772663

- temperature:       350.0000000
  free_energy:       -59.4312546
  entropy:           484.7082253
  heat_capacity:     284.3491904
  energy:            110.2166242

- temperature:       360.0000000
  free_energy:       -64.3186138
  entropy:           492.7295887
  heat_capacity:     285.1235213
  energy:            113.0640381

- temperature:       370.0000000
  free_energy:       -69.2851819
  entropy:           500.5515812
  heat_capacity:     285.8403817
  energy:            115.9189032

- temperature:       380.0000000
  free_energy:       -74.3290115
  entropy:           508.1833787
  heat_capacity:     286.5052159
  energy:            118.7806724

- temperature:       390.0000000
  free_energy:       -79.4482442
  entropy:           515.6335754
  heat_capacity:     287.1228507
  energy:            121.6488502

- temperature:       400.0000000
  free_energy:       -84.6411046
  entropy:           522.9102276
  heat_capacity:     287.6975765
  energy:            124.5229865

- temperature:       410.0000000
  free_energy:       -89.9058955
  entropy:           530.0208951
  heat_capacity:     288.2332151
  energy:            127.4026715

- temperature:       420.0000000
  free_energy:       -95.2409929
  entropy:           536.9726781
  heat_capacity:     288.7331794
  energy:            130.2875319

- temperature:       430.0000000
  free_energy:      -100.6448417
  entropy:           543.7722515
  heat_capacity:     289.2005234
  energy:            133.1772264

- temperature:       440.0000000
  free_energy:      -106.1159516
  entropy:           550.4258962
  heat_capacity:     289.6379860
  energy:            136.0714428

- temperature:       450.0000000
  free_energy:      -111.6528930
  entropy:           556.9395283
  heat_capacity:     290.0480284
  energy:            138.9698947

- temperature:       460.0000000
  free_energy:      -117.2542940
  entropy:           563.3187248
  heat_capacity:     290.4328671
  energy:            141.8723194

- temperature:       470.0000000
  free_energy:      -122.9188369
  entropy:           569.5687483
  heat_capacity:     290.7945017
  energy:            144.7784748

- temperature:       480.0000000
  free_energy:      -128.6452550
  entropy:           575.6945690
  heat_capacity:     291.1347400
  energy:            147.6881381

- temperature:       490.0000000
  free_energy:      -134.4323300
  entropy:           581.7008851
  heat_capacity:     291.4552190
  energy:            150.6011037

- temperature:       500.0000000
  free_energy:      -140.2788892
  entropy:           587.5921416
  heat_capacity:     291.7574237
  energy:            153.5171816

- temperature:       510.0000000
  free_energy:      -146.1838034
  entropy:           593.3725473
  heat_capacity:     292.0427038
  energy:            156.4361958

- temperature:       520.0000000
  free_energy:      -152.1459840
  entropy:           599.0460910
  heat_capacity:     292.3122879
  energy:            159.3579833

- temperature:       530.0000000
  free_energy:      -158.1643816
  entropy:           604.6165558
  heat_capacity:     292.5672961
  energy:            162.2823930

- temperature:       540.0000000
  free_energy:      -164.2379835
  entropy:           610.0875326
  heat_capacity:     292.8087514
  energy:            165.2092841

- temperature:       550.0000000
  free_energy:      -170.3658120
  entropy:           615.4624326
  heat_capacity:     293.0375891
  energy:            168.1385259

- temperature:       560.0000000
  free_energy:      -176.5469227
  entropy:           620.7444989
  heat_capacity:     293.2546663
  energy:            171.0699967

- temperature:       570.0000000
  free_energy:      -182.7804028
  entropy:           625.9368167
  heat_capacity:     293.4607687
  energy:            174.0035827

- temperature:       580.0000000
  free_energy:      -189.0653697
  entropy:           631.0423234
  heat_capacity:     293.6566185
  energy:            176.9391779

- temperature:       590.0000000
  free_energy:      -195.4009693
  entropy:           636.0638176
  heat_capacity:     293.8428794
  energy:            179.8766831

- temperature:       600.0000000
  free_energy:      -201.7863749
  entropy:           641.0039675
  heat_capacity:     294.0201629
  energy:            182.8160056

- temperature:       610.0000000
  free_energy:      -208.2207860
  entropy:           645.8653185
  heat_capacity:     294.1890329
  energy:            185.7570583

- temperature:       620.0000000
  free_energy:      -214.7034267
  entropy:           650.6503010
  heat_capacity:     294.3500100
  energy:            188.6997599

- temperature:       630.0000000
  free_energy:      -221.2335452
  entropy:           655.3612365
  heat_capacity:     294.5035753
  energy:            191.6440338

- temperature:       640.0000000
  free_energy:      -227.8104121
  entropy:           660.0003441
  heat_capacity:     294.6501740
  energy:            194.5898082

- temperature:       650.0000000
  free_energy:      -234.4333197
  entropy:           664.5697465
  heat_capacity:     294.7902189
  energy:            197.5370155

- temperature:       660.0000000
  free_energy:      -241.1015814
  entropy:           669.0714749
  heat_capacity:     294.9240924
  energy:            200.4855920

- temperature:       670.0000000
  free_energy:      -247.8145301
  entropy:           673.5074747
  heat_capacity:     295.0521500
  energy:            203.4354779

- temperature:       680.0000000
  free_energy:      -254.5715180
  entropy:           677.8796099
  heat_capacity:     295.1747218
  energy:            206.3866167

- temperature:       690.0000000
  free_energy:      -261.3719154
  entropy:           682.1896674
  heat_capacity:     295.2921151
  energy:            209.3389551

- temperature:       700.0000000
  free_energy:      -268.2151102
  entropy:           686.4393613
  heat_capacity:     295.4046161
  energy:            212.2924427

- temperature:       710.0000000
  free_energy:      -275.1005069
  entropy:           690.6303365
  heat_capacity:     295.5124914
  energy:            215.2470320

- temperature:       720.0000000
  free_energy:      -282.0275265
  entropy:           694.7641728
  heat_capacity:     295.6159901
  energy:            218.2026780

- temperature:       730.0000000
  free_energy:      -288.9956050
  entropy:           698.8423877
  heat_capacity:     295.7153445
  energy:            221.1593380

- temperature:       740.0000000
  free_energy:      -296.0041937
  entropy:           702.8664398
  heat_capacity:     295.8107721
  energy:            224.1169718

- temperature:       750.0000000
  free_energy:      -303.0527579
  entropy:           706.8377319
  heat_capacity:     295.9024760
  energy:            227.0755410

- temperature:       760.0000000
  free_energy:      -310.1407769
  entropy:           710.7576138
  heat_capacity:     295.9906468
  energy:            230.0350095

- temperature:       770.0000000
  free_energy:      -317.2677432
  entropy:           714.6273843
  heat_capacity:     296.0754628
  energy:            232.9953428

- temperature:       780.0000000
  free_energy:      -324.4331618
  entropy:           718.4482948
  heat_capacity:     296.1570914
  energy:            235.9565081

- temperature:       790.0000000
  free_energy:      -331.6365502
  entropy:           722.2215503
  heat_capacity:     296.2356896
  energy:            238.9184745

- temperature:       800.0000000
  free_energy:      -338.8774378
  entropy:           725.9483127
  heat_capacity:     296.3114051
  energy:            241.8812123

- temperature:       810.0000000
  free_energy:      -346.1553652
  entropy:           729.6297021
  heat_capacity:     296.3843765
  energy:            244.8446935

- temperature:       820.0000000
  free_energy:      -353.4698842
  entropy:           733.2667992
  heat_capacity:     296.4547344
  energy:            247.8088911

- temperature:       830.0000000
  free_energy:      -360.8205571
  entropy:           736.8606469
  heat_capacity:     296.5226017
  energy:            250.7737799

- temperature:       840.0000000
  free_energy:      -368.2069563
  entropy:           740.4122519
  heat_capacity:     296.5880941
  energy:            253.7393353

- temperature:       850.0000000
  free_energy:      -375.6286645
  entropy:           743.9225867
  heat_capacity:     296.6513208
  energy:            256.7055342

- temperature:       860.0000000
  free_energy:      -383.0852736
  entropy:           747.3925908
  heat_capacity:     296.7123847
  energy:            259.6723545

- temperature:       870.0000000
  free_energy:      -390.5763849
  entropy:           750.8231723
  heat_capacity:     296.7713830
  energy:            262.6397750

- temperature:       880.0000000
  free_energy:      -398.1016086
  entropy:           754.2152093
  heat_capacity:     296.8284076
  energy:            265.6077756

- temperature:       890.0000000
  free_energy:      -405.6605635
  entropy:           757.5695509
  heat_capacity:     296.8835452
  energy:            268.5763369

- temperature:       900.0000000
  free_energy:      -413.2528767
  entropy:           760.8870191
  heat_capacity:     296.9368779
  energy:            271.5454404

- temperature:       910.0000000
  free_energy:      -420.8781836
  entropy:           764.1684091
  heat_capacity:     296.9884835
  energy:            274.5150687

- temperature:       920.0000000
  free_energy:      -428.5361272
  entropy:           767.4144911
  heat_capacity:     297.0384353
  energy:            277.4852046

- temperature:       930.0000000
  free_energy:      -436.2263582
  entropy:           770.6260111
  heat_capacity:     297.0868033
  energy:            280.4558321

- temperature:       940.0000000
  free_energy:      -443.9485346
  entropy:           773.8036918
  heat_capacity:     297.1336534
  energy:            283.4269356

- temperature:       950.0000000
  free_energy:      -451.7023216
  entropy:           776.9482336
  heat_capacity:     297.1790483
  energy:            286.3985003

- temperature:       960.0000000
  free_energy:      -459.4873911
  entropy:           780.0603157
  heat_capacity:     297.2230475
  energy:            289.3705119

- temperature:       970.0000000
  free_energy:      -467.3034219
  entropy:           783.1405966
  heat_capacity:     297.2657075
  energy:            292.3429568

- temperature:       980.0000000
  free_energy:      -475.1500992
  entropy:           786.1897153
  heat_capacity:     297.3070819
  energy:            295.3158218

- temperature:       990.0000000
  free_energy:      -483.0271144
  entropy:           789.2082916
  heat_capacity:     297.3472218
  energy:            298.2890943

- temperature:      1000.0000000
  free_energy:      -490.9341652
  entropy:           792.1969275
  heat_capacity:     297.3861756
  energy:            301.2627623
