phonopy:
  version: "2.37.1"
  frequency_unit_conversion_factor: 15.633302
  symmetry_tolerance: 1.00000e-05

space_group:
  type: "Fm-3m"
  number: 225
  Hall_symbol: "-F 4 2 3"

primitive_matrix:
- [ -1.000000000000000, -0.000000000000000, -0.000000000000000 ]
- [ -0.000000000000000, -1.000000000000000, -0.000000000000000 ]
- [  1.000000000000000,  1.000000000000000,  1.000000000000000 ]

supercell_matrix:
- [   3,   0,   0 ]
- [   0,   3,   0 ]
- [   0,   0,   3 ]

primitive_cell:
  lattice:
  - [    -2.314051742772504,     1.336018475788510,     3.778830254762337 ] # a
  - [     0.000000005346413,    -2.672036260581290,     3.778830254762337 ] # b
  - [     2.314051636684550,     1.336018475788510,     3.778830254762337 ] # c
  points:
  - symbol: Li # 1
    coordinates: [  0.749999998544986,  0.749999999549424,  0.750000002607419 ]
    mass: 6.940000
  - symbol: Li # 2
    coordinates: [  0.249999996046477,  0.250000003021081,  0.249999994701386 ]
    mass: 6.940000
  - symbol: Sn # 3
    coordinates: [  0.000000005374504,  0.999999997448066,  0.000000002702450 ]
    mass: 118.710000
  reciprocal_lattice: # without 2pi
  - [    -0.216071232211177,     0.124748792187499,     0.088210709365374 ] # a*
  - [    -0.000000000000000,    -0.249497590670562,     0.088210734097013 ] # b*
  - [     0.216071232211177,     0.124748798483063,     0.088210713205601 ] # c*

unit_cell:
  lattice:
  - [     4.628103379457055,     0.000000000000000,     0.000000000000000 ] # a
  - [     2.314051631338137,     4.008054736369800,     0.000000000000000 ] # b
  - [     2.314051636684551,     1.336018475788511,     3.778830254762337 ] # c
  points:
  - symbol: Li # 1
    coordinates: [  0.250000001455014,  0.250000000450576,  0.250000000701829 ]
    mass: 6.940000
    reduced_to: 1
  - symbol: Li # 2
    coordinates: [  0.750000003953523,  0.749999996978919,  0.749999993768945 ]
    mass: 6.940000
    reduced_to: 2
  - symbol: Sn # 3
    coordinates: [  0.999999994625496,  0.000000002551934,  0.000000005525020 ]
    mass: 118.710000
    reduced_to: 3

supercell:
  lattice:
  - [    13.884310138371163,     0.000000000000000,     0.000000000000000 ] # a
  - [     6.942154894014411,    12.024164209109401,     0.000000000000000 ] # b
  - [     6.942154910053652,     4.008055427365533,    11.336490764287010 ] # c
  points:
  - symbol: Li # 1
    coordinates: [  0.083333333818338,  0.083333333483525,  0.083333333567276 ]
    mass: 6.940000
    reduced_to: 1
  - symbol: Li # 2
    coordinates: [  0.416666667151671,  0.083333333483525,  0.083333333567276 ]
    mass: 6.940000
    reduced_to: 1
  - symbol: Li # 3
    coordinates: [  0.750000000485004,  0.083333333483525,  0.083333333567276 ]
    mass: 6.940000
    reduced_to: 1
  - symbol: Li # 4
    coordinates: [  0.083333333818338,  0.416666666816859,  0.083333333567276 ]
    mass: 6.940000
    reduced_to: 1
  - symbol: Li # 5
    coordinates: [  0.416666667151671,  0.416666666816859,  0.083333333567276 ]
    mass: 6.940000
    reduced_to: 1
  - symbol: Li # 6
    coordinates: [  0.750000000485004,  0.416666666816859,  0.083333333567276 ]
    mass: 6.940000
    reduced_to: 1
  - symbol: Li # 7
    coordinates: [  0.083333333818338,  0.750000000150192,  0.083333333567276 ]
    mass: 6.940000
    reduced_to: 1
  - symbol: Li # 8
    coordinates: [  0.416666667151671,  0.750000000150192,  0.083333333567276 ]
    mass: 6.940000
    reduced_to: 1
  - symbol: Li # 9
    coordinates: [  0.750000000485004,  0.750000000150192,  0.083333333567276 ]
    mass: 6.940000
    reduced_to: 1
  - symbol: Li # 10
    coordinates: [  0.083333333818338,  0.083333333483525,  0.416666666900610 ]
    mass: 6.940000
    reduced_to: 1
  - symbol: Li # 11
    coordinates: [  0.416666667151671,  0.083333333483525,  0.416666666900610 ]
    mass: 6.940000
    reduced_to: 1
  - symbol: Li # 12
    coordinates: [  0.750000000485004,  0.083333333483525,  0.416666666900610 ]
    mass: 6.940000
    reduced_to: 1
  - symbol: Li # 13
    coordinates: [  0.083333333818338,  0.416666666816859,  0.416666666900610 ]
    mass: 6.940000
    reduced_to: 1
  - symbol: Li # 14
    coordinates: [  0.416666667151671,  0.416666666816859,  0.416666666900610 ]
    mass: 6.940000
    reduced_to: 1
  - symbol: Li # 15
    coordinates: [  0.750000000485004,  0.416666666816859,  0.416666666900610 ]
    mass: 6.940000
    reduced_to: 1
  - symbol: Li # 16
    coordinates: [  0.083333333818338,  0.750000000150192,  0.416666666900610 ]
    mass: 6.940000
    reduced_to: 1
  - symbol: Li # 17
    coordinates: [  0.416666667151671,  0.750000000150192,  0.416666666900610 ]
    mass: 6.940000
    reduced_to: 1
  - symbol: Li # 18
    coordinates: [  0.750000000485004,  0.750000000150192,  0.416666666900610 ]
    mass: 6.940000
    reduced_to: 1
  - symbol: Li # 19
    coordinates: [  0.083333333818338,  0.083333333483525,  0.750000000233943 ]
    mass: 6.940000
    reduced_to: 1
  - symbol: Li # 20
    coordinates: [  0.416666667151671,  0.083333333483525,  0.750000000233943 ]
    mass: 6.940000
    reduced_to: 1
  - symbol: Li # 21
    coordinates: [  0.750000000485004,  0.083333333483525,  0.750000000233943 ]
    mass: 6.940000
    reduced_to: 1
  - symbol: Li # 22
    coordinates: [  0.083333333818338,  0.416666666816859,  0.750000000233943 ]
    mass: 6.940000
    reduced_to: 1
  - symbol: Li # 23
    coordinates: [  0.416666667151671,  0.416666666816859,  0.750000000233943 ]
    mass: 6.940000
    reduced_to: 1
  - symbol: Li # 24
    coordinates: [  0.750000000485004,  0.416666666816859,  0.750000000233943 ]
    mass: 6.940000
    reduced_to: 1
  - symbol: Li # 25
    coordinates: [  0.083333333818338,  0.750000000150192,  0.750000000233943 ]
    mass: 6.940000
    reduced_to: 1
  - symbol: Li # 26
    coordinates: [  0.416666667151671,  0.750000000150192,  0.750000000233943 ]
    mass: 6.940000
    reduced_to: 1
  - symbol: Li # 27
    coordinates: [  0.750000000485004,  0.750000000150192,  0.750000000233943 ]
    mass: 6.940000
    reduced_to: 1
  - symbol: Li # 28
    coordinates: [  0.250000001317841,  0.249999998992973,  0.249999997922982 ]
    mass: 6.940000
    reduced_to: 28
  - symbol: Li # 29
    coordinates: [  0.583333334651174,  0.249999998992973,  0.249999997922982 ]
    mass: 6.940000
    reduced_to: 28
  - symbol: Li # 30
    coordinates: [  0.916666667984507,  0.249999998992973,  0.249999997922982 ]
    mass: 6.940000
    reduced_to: 28
  - symbol: Li # 31
    coordinates: [  0.250000001317841,  0.583333332326306,  0.249999997922982 ]
    mass: 6.940000
    reduced_to: 28
  - symbol: Li # 32
    coordinates: [  0.583333334651174,  0.583333332326306,  0.249999997922982 ]
    mass: 6.940000
    reduced_to: 28
  - symbol: Li # 33
    coordinates: [  0.916666667984507,  0.583333332326306,  0.249999997922982 ]
    mass: 6.940000
    reduced_to: 28
  - symbol: Li # 34
    coordinates: [  0.250000001317841,  0.916666665659640,  0.249999997922982 ]
    mass: 6.940000
    reduced_to: 28
  - symbol: Li # 35
    coordinates: [  0.583333334651174,  0.916666665659640,  0.249999997922982 ]
    mass: 6.940000
    reduced_to: 28
  - symbol: Li # 36
    coordinates: [  0.916666667984507,  0.916666665659640,  0.249999997922982 ]
    mass: 6.940000
    reduced_to: 28
  - symbol: Li # 37
    coordinates: [  0.250000001317841,  0.249999998992973,  0.583333331256315 ]
    mass: 6.940000
    reduced_to: 28
  - symbol: Li # 38
    coordinates: [  0.583333334651174,  0.249999998992973,  0.583333331256315 ]
    mass: 6.940000
    reduced_to: 28
  - symbol: Li # 39
    coordinates: [  0.916666667984507,  0.249999998992973,  0.583333331256315 ]
    mass: 6.940000
    reduced_to: 28
  - symbol: Li # 40
    coordinates: [  0.250000001317841,  0.583333332326306,  0.583333331256315 ]
    mass: 6.940000
    reduced_to: 28
  - symbol: Li # 41
    coordinates: [  0.583333334651174,  0.583333332326306,  0.583333331256315 ]
    mass: 6.940000
    reduced_to: 28
  - symbol: Li # 42
    coordinates: [  0.916666667984507,  0.583333332326306,  0.583333331256315 ]
    mass: 6.940000
    reduced_to: 28
  - symbol: Li # 43
    coordinates: [  0.250000001317841,  0.916666665659640,  0.583333331256315 ]
    mass: 6.940000
    reduced_to: 28
  - symbol: Li # 44
    coordinates: [  0.583333334651174,  0.916666665659640,  0.583333331256315 ]
    mass: 6.940000
    reduced_to: 28
  - symbol: Li # 45
    coordinates: [  0.916666667984507,  0.916666665659640,  0.583333331256315 ]
    mass: 6.940000
    reduced_to: 28
  - symbol: Li # 46
    coordinates: [  0.250000001317841,  0.249999998992973,  0.916666664589648 ]
    mass: 6.940000
    reduced_to: 28
  - symbol: Li # 47
    coordinates: [  0.583333334651174,  0.249999998992973,  0.916666664589648 ]
    mass: 6.940000
    reduced_to: 28
  - symbol: Li # 48
    coordinates: [  0.916666667984507,  0.249999998992973,  0.916666664589648 ]
    mass: 6.940000
    reduced_to: 28
  - symbol: Li # 49
    coordinates: [  0.250000001317841,  0.583333332326306,  0.916666664589648 ]
    mass: 6.940000
    reduced_to: 28
  - symbol: Li # 50
    coordinates: [  0.583333334651174,  0.583333332326306,  0.916666664589648 ]
    mass: 6.940000
    reduced_to: 28
  - symbol: Li # 51
    coordinates: [  0.916666667984507,  0.583333332326306,  0.916666664589648 ]
    mass: 6.940000
    reduced_to: 28
  - symbol: Li # 52
    coordinates: [  0.250000001317841,  0.916666665659640,  0.916666664589648 ]
    mass: 6.940000
    reduced_to: 28
  - symbol: Li # 53
    coordinates: [  0.583333334651174,  0.916666665659640,  0.916666664589648 ]
    mass: 6.940000
    reduced_to: 28
  - symbol: Li # 54
    coordinates: [  0.916666667984507,  0.916666665659640,  0.916666664589648 ]
    mass: 6.940000
    reduced_to: 28
  - symbol: Sn # 55
    coordinates: [  0.333333331541832,  0.000000000850645,  0.000000001841673 ]
    mass: 118.710000
    reduced_to: 55
  - symbol: Sn # 56
    coordinates: [  0.666666664875165,  0.000000000850645,  0.000000001841673 ]
    mass: 118.710000
    reduced_to: 55
  - symbol: Sn # 57
    coordinates: [  0.999999998208499,  0.000000000850645,  0.000000001841673 ]
    mass: 118.710000
    reduced_to: 55
  - symbol: Sn # 58
    coordinates: [  0.333333331541832,  0.333333334183978,  0.000000001841673 ]
    mass: 118.710000
    reduced_to: 55
  - symbol: Sn # 59
    coordinates: [  0.666666664875165,  0.333333334183978,  0.000000001841673 ]
    mass: 118.710000
    reduced_to: 55
  - symbol: Sn # 60
    coordinates: [  0.999999998208499,  0.333333334183978,  0.000000001841673 ]
    mass: 118.710000
    reduced_to: 55
  - symbol: Sn # 61
    coordinates: [  0.333333331541832,  0.666666667517311,  0.000000001841673 ]
    mass: 118.710000
    reduced_to: 55
  - symbol: Sn # 62
    coordinates: [  0.666666664875165,  0.666666667517311,  0.000000001841673 ]
    mass: 118.710000
    reduced_to: 55
  - symbol: Sn # 63
    coordinates: [  0.999999998208499,  0.666666667517311,  0.000000001841673 ]
    mass: 118.710000
    reduced_to: 55
  - symbol: Sn # 64
    coordinates: [  0.333333331541832,  0.000000000850645,  0.333333335175007 ]
    mass: 118.710000
    reduced_to: 55
  - symbol: Sn # 65
    coordinates: [  0.666666664875165,  0.000000000850645,  0.333333335175007 ]
    mass: 118.710000
    reduced_to: 55
  - symbol: Sn # 66
    coordinates: [  0.999999998208499,  0.000000000850645,  0.333333335175007 ]
    mass: 118.710000
    reduced_to: 55
  - symbol: Sn # 67
    coordinates: [  0.333333331541832,  0.333333334183978,  0.333333335175007 ]
    mass: 118.710000
    reduced_to: 55
  - symbol: Sn # 68
    coordinates: [  0.666666664875165,  0.333333334183978,  0.333333335175007 ]
    mass: 118.710000
    reduced_to: 55
  - symbol: Sn # 69
    coordinates: [  0.999999998208499,  0.333333334183978,  0.333333335175007 ]
    mass: 118.710000
    reduced_to: 55
  - symbol: Sn # 70
    coordinates: [  0.333333331541832,  0.666666667517311,  0.333333335175007 ]
    mass: 118.710000
    reduced_to: 55
  - symbol: Sn # 71
    coordinates: [  0.666666664875165,  0.666666667517311,  0.333333335175007 ]
    mass: 118.710000
    reduced_to: 55
  - symbol: Sn # 72
    coordinates: [  0.999999998208499,  0.666666667517311,  0.333333335175007 ]
    mass: 118.710000
    reduced_to: 55
  - symbol: Sn # 73
    coordinates: [  0.333333331541832,  0.000000000850645,  0.666666668508340 ]
    mass: 118.710000
    reduced_to: 55
  - symbol: Sn # 74
    coordinates: [  0.666666664875165,  0.000000000850645,  0.666666668508340 ]
    mass: 118.710000
    reduced_to: 55
  - symbol: Sn # 75
    coordinates: [  0.999999998208499,  0.000000000850645,  0.666666668508340 ]
    mass: 118.710000
    reduced_to: 55
  - symbol: Sn # 76
    coordinates: [  0.333333331541832,  0.333333334183978,  0.666666668508340 ]
    mass: 118.710000
    reduced_to: 55
  - symbol: Sn # 77
    coordinates: [  0.666666664875165,  0.333333334183978,  0.666666668508340 ]
    mass: 118.710000
    reduced_to: 55
  - symbol: Sn # 78
    coordinates: [  0.999999998208499,  0.333333334183978,  0.666666668508340 ]
    mass: 118.710000
    reduced_to: 55
  - symbol: Sn # 79
    coordinates: [  0.333333331541832,  0.666666667517311,  0.666666668508340 ]
    mass: 118.710000
    reduced_to: 55
  - symbol: Sn # 80
    coordinates: [  0.666666664875165,  0.666666667517311,  0.666666668508340 ]
    mass: 118.710000
    reduced_to: 55
  - symbol: Sn # 81
    coordinates: [  0.999999998208499,  0.666666667517311,  0.666666668508340 ]
    mass: 118.710000
    reduced_to: 55

displacements:
- atom:    1
  displacement:
    [   0.0100000000000000,  0.0000000000000000,  0.0000000000000000 ]
  forces:
  - [  -0.0226525608450174,  0.0002610403753351,  0.0001844316720963 ]
  - [  -0.0009851106442511, -0.0003730623284355, -0.0002644225023687 ]
  - [  -0.0009906752966344,  0.0003740479005501,  0.0002640942111611 ]
  - [   0.0001217762473971, -0.0002626641944516,  0.0001688883639872 ]
  - [   0.0000205889136851,  0.0000009913593431, -0.0000004172325134 ]
  - [   0.0001176071091322,  0.0002663253981154, -0.0001693144440651 ]
  - [   0.0001169317401946, -0.0010073868324980,  0.0004292014054954 ]
  - [   0.0001209685578942,  0.0010175483766943, -0.0004362110048532 ]
  - [   0.0000187985133380, -0.0000003934837878, -0.0000003078021109 ]
  - [   0.0001218158286065,  0.0000714454799891, -0.0003053015097976 ]
  - [   0.0000205694723263, -0.0000004097819328, -0.0000004712492228 ]
  - [   0.0001169727620436, -0.0000707935541868,  0.0003063543699682 ]
  - [   0.0000009483192116,  0.0000107120404209,  0.0000066142529249 ]
  - [   0.0000013143289834, -0.0000109901075120, -0.0000087744556367 ]
  - [  -0.0000074487179518,  0.0000014349017192, -0.0000001047737896 ]
  - [  -0.0000016337726265, -0.0000025872141123,  0.0000011101365089 ]
  - [  -0.0000297392252833,  0.0000139145413414, -0.0000222045928240 ]
  - [  -0.0000278684310615, -0.0000147940590978,  0.0000206553377211 ]
  - [   0.0001171727199107,  0.0000697795767337, -0.0010934118181467 ]
  - [   0.0001212144270539, -0.0000710811000317,  0.0011044288985431 ]
  - [   0.0000183589290828,  0.0000008880160749, -0.0000008624047041 ]
  - [  -0.0000015734694898,  0.0000003864988685, -0.0000034826807678 ]
  - [  -0.0000294882338494, -0.0000161752104759,  0.0000198460184038 ]
  - [  -0.0000278716906905,  0.0000146264210343, -0.0000218572095037 ]
  - [   0.0000017825514078,  0.0000102892518044,  0.0000070980750024 ]
  - [  -0.0000071753747761, -0.0000011594966054, -0.0000009345822036 ]
  - [  -0.0000006449408829, -0.0000125095248222, -0.0000090808607638 ]
  - [   0.0000085551291704,  0.0000511298421770,  0.0000364636071026 ]
  - [   0.0000090543180704, -0.0000489053782076, -0.0000341334380209 ]
  - [   0.0001628836616874, -0.0000014237593859, -0.0000007846392691 ]
  - [  -0.0000755479559302,  0.0000001611188054,  0.0000004721805453 ]
  - [   0.0000394517555833, -0.0000230725854635,  0.0000133379362524 ]
  - [   0.0000405488535762,  0.0000245999544859, -0.0000113788992167 ]
  - [   0.0007060803472996, -0.0003129756078124,  0.0005380758084357 ]
  - [   0.0000786287710071,  0.0000003101304173,  0.0000009746290743 ]
  - [   0.0006793001666665,  0.0002968856133521, -0.0005284501239657 ]
  - [  -0.0000759335234761,  0.0000000833533704,  0.0000007487833500 ]
  - [   0.0000397190451622,  0.0000042964238673, -0.0000252462923527 ]
  - [   0.0000408962368965, -0.0000028931535780,  0.0000280388630927 ]
  - [   0.0000032186508179,  0.0000241526868194,  0.0000176918692887 ]
  - [  -0.0000095209106803,  0.0000003858003765,  0.0000010570511222 ]
  - [   0.0000012060627341, -0.0000223407987505, -0.0000151707790792 ]
  - [  -0.0000033527612686,  0.0000209631398320,  0.0000447882339358 ]
  - [  -0.0000021504238248, -0.0000188937410712, -0.0000422587618232 ]
  - [  -0.0002030171453953,  0.0000001313164830,  0.0000063003972173 ]
  - [   0.0007057366892695,  0.0004007518291473, -0.0004733139649034 ]
  - [   0.0000786376185715, -0.0000010579824448,  0.0000011702068150 ]
  - [   0.0006793076172471, -0.0004011583514512,  0.0004575187340379 ]
  - [  -0.0000032614916563,  0.0000476501882076,  0.0000063050538301 ]
  - [  -0.0000022677704692, -0.0000478355214000, -0.0000024531036615 ]
  - [  -0.0002031484618783,  0.0000040039885789, -0.0000005867332220 ]
  - [  -0.0000055643031374, -0.0000025587919481,  0.0000007627531886 ]
  - [  -0.0017275462159887,  0.0008753966540098,  0.0006213807500899 ]
  - [  -0.0017401310615242, -0.0008886982686818, -0.0006256778724492 ]
  - [   0.0121962372213602, -0.0073424046859145, -0.0051936358213425 ]
  - [   0.0005685969954357, -0.0000012942448393, -0.0000027772039175 ]
  - [   0.0119199585169554,  0.0071360240690410,  0.0050441063940525 ]
  - [   0.0001954995095730,  0.0002839993685484, -0.0000250637531281 ]
  - [   0.0001966226845980, -0.0002820529043674,  0.0000231154263020 ]
  - [  -0.0004851411213167, -0.0000386014580727,  0.0000153202563524 ]
  - [  -0.0002952888607979,  0.0000003837049007, -0.0000008866190910 ]
  - [   0.0001504905521870, -0.0002379752695560, -0.0000031422823668 ]
  - [   0.0001512076705694,  0.0002417676150799,  0.0000020526349545 ]
  - [   0.0001953747123480,  0.0000713635236025,  0.0002741310745478 ]
  - [   0.0001970864832401, -0.0000716801732779, -0.0002753380686045 ]
  - [  -0.0004849455435760,  0.0000016670674086, -0.0000445973128080 ]
  - [  -0.0000017695128918, -0.0000011469237506, -0.0000014714896679 ]
  - [  -0.0000003464519978, -0.0000034421682358, -0.0000035017728806 ]
  - [  -0.0000019632279873, -0.0000000535510480, -0.0000010337680578 ]
  - [   0.0000305380672216, -0.0002086739987135,  0.0002723429352045 ]
  - [  -0.0000634733587503, -0.0000016158446670, -0.0000014491379261 ]
  - [   0.0000267401337624,  0.0002067647874355, -0.0002747885882854 ]
  - [  -0.0002952236682177,  0.0000001676380634, -0.0000003743916750 ]
  - [   0.0001500267535448, -0.0000815745443106, -0.0002241507172585 ]
  - [   0.0001514051109552,  0.0000828281044960,  0.0002258792519569 ]
  - [   0.0000303946435452,  0.0001874510198832, -0.0002853237092495 ]
  - [  -0.0000638049095869, -0.0000016260892153,  0.0000005569308996 ]
  - [   0.0000266917049885, -0.0001903697848320,  0.0002878401428461 ]
  - [   0.0000006295740604, -0.0000326288864017, -0.0000229049474001 ]
  - [   0.0000018961727619,  0.0000331485643983,  0.0000232420861721 ]
  - [   0.0000057630240917,  0.0000010996591300,  0.0000007022172213 ]
- atom:   55
  displacement:
    [   0.0100000000000000,  0.0000000000000000,  0.0000000000000000 ]
  forces:
  - [   0.0119192190468311, -0.0071266484446824, -0.0050395117141306 ]
  - [   0.0121936770156026,  0.0073523251339793,  0.0051987227052450 ]
  - [   0.0005661216564476,  0.0000001740325501, -0.0000003487803042 ]
  - [  -0.0002949615009129,  0.0000009745955367, -0.0000010058283806 ]
  - [   0.0001489116548328,  0.0002419243974146,  0.0000020111910999 ]
  - [   0.0001505195832578, -0.0002406734565739, -0.0000049360096455 ]
  - [   0.0001956024207175,  0.0002822011010721, -0.0002228105440736 ]
  - [  -0.0004820381291211,  0.0000311074545607, -0.0000217147171497 ]
  - [   0.0001909679267555, -0.0002830849261954,  0.0002181273885071 ]
  - [  -0.0002950367052108, -0.0000008763745427, -0.0000001220032573 ]
  - [   0.0001490568392910,  0.0000823531299829,  0.0002258294261992 ]
  - [   0.0001498286583228, -0.0000847484916449, -0.0002263700589538 ]
  - [  -0.0000032861717045, -0.0000333154239343, -0.0000245333649218 ]
  - [   0.0000047481153160,  0.0000010563190926, -0.0000003045424819 ]
  - [  -0.0000052670948207,  0.0000346388842445,  0.0000232993625104 ]
  - [   0.0000335739459842,  0.0001891115680337, -0.0000916318967938 ]
  - [   0.0000316135119647, -0.0001893861917779,  0.0000884928740561 ]
  - [  -0.0000576637685299,  0.0000002018641680, -0.0000006812624633 ]
  - [   0.0001957928761840, -0.0001151119358838,  0.0003397883847356 ]
  - [  -0.0004817331209779, -0.0000094792339951,  0.0000370107591152 ]
  - [   0.0001907271798700,  0.0001124369446188, -0.0003400119021535 ]
  - [   0.0000336924567819, -0.0000232588499784,  0.0002081925049424 ]
  - [   0.0000315664801747,  0.0000205272808671, -0.0002087661996484 ]
  - [  -0.0000575880985707, -0.0000005252659321, -0.0000002179294825 ]
  - [  -0.0000013839453459,  0.0000001071020961, -0.0000001979060471 ]
  - [  -0.0000072312541306,  0.0001885872334242,  0.0001331376843154 ]
  - [  -0.0000069704838097, -0.0001853927969933, -0.0001313085667789 ]
  - [  -0.0000053560361266,  0.0001852633431554,  0.0001313998363912 ]
  - [  -0.0000014072284102, -0.0000000309664756,  0.0000004232861102 ]
  - [  -0.0000071534886956, -0.0001891406718642, -0.0001333421096206 ]
  - [   0.0000336812809110,  0.0000237515196204, -0.0002083443105221 ]
  - [   0.0000313520431519, -0.0000204853713512,  0.0002088835462928 ]
  - [  -0.0000579645857215,  0.0000005196779966,  0.0000003599561751 ]
  - [  -0.0004811044782400,  0.0000093206763268, -0.0000373711809516 ]
  - [   0.0001911986619234, -0.0001112977042794,  0.0003401413559914 ]
  - [   0.0001953039318323,  0.0001163445413113, -0.0003395914100111 ]
  - [   0.0000333543866873, -0.0001888163387775,  0.0000926065258682 ]
  - [   0.0000316035002470,  0.0001895772293210, -0.0000879974104464 ]
  - [  -0.0000578146427870,  0.0000002151355147,  0.0000014519318938 ]
  - [   0.0000049304217100, -0.0000003869645298,  0.0000003958120942 ]
  - [  -0.0000050915405154, -0.0000329071190208, -0.0000226320698857 ]
  - [  -0.0000049052760005,  0.0000340926926583,  0.0000248402357101 ]
  - [   0.0001484416425228,  0.0000846590846777,  0.0002266480587423 ]
  - [  -0.0002954369410872,  0.0000026281923056,  0.0000013783574104 ]
  - [   0.0001501254737377, -0.0000828076153994, -0.0002260613255203 ]
  - [  -0.0004814025014639, -0.0000343052670360,  0.0000219205394387 ]
  - [   0.0001912615261972,  0.0002817027270794, -0.0002171616069973 ]
  - [   0.0001952368766069, -0.0002829325385392,  0.0002241549082100 ]
  - [   0.0001484537497163,  0.0002399659715593,  0.0000056368298829 ]
  - [  -0.0002955608069897,  0.0000005410984159,  0.0000031827948987 ]
  - [   0.0001500090584159, -0.0002423811238259, -0.0000013331882656 ]
  - [   0.0119171226397157,  0.0071258195675910,  0.0050410060212016 ]
  - [   0.0121915703639388, -0.0073539535515010, -0.0051976018585265 ]
  - [   0.0005642403848469, -0.0000014421361811,  0.0000014198012650 ]
  - [  -0.0382860451936722,  0.0000027101532396, -0.0000009965151548 ]
  - [  -0.0030347236897796,  0.0000014047291188, -0.0000007860362530 ]
  - [  -0.0030519273132086,  0.0000009791124285, -0.0000008866190910 ]
  - [  -0.0006514489650726, -0.0013738553971052,  0.0000856202095747 ]
  - [   0.0001162607222795,  0.0000032894313335, -0.0000006724148989 ]
  - [  -0.0006670806324109,  0.0013845562934875, -0.0000836364924908 ]
  - [  -0.0006638951599598, -0.0013827746734023,  0.0000837594270706 ]
  - [  -0.0006517656147480,  0.0013758912682533, -0.0000857114791870 ]
  - [   0.0001164432615042, -0.0000031776726246, -0.0000004880130291 ]
  - [  -0.0006517600268126, -0.0003769174218178, -0.0013260655105114 ]
  - [   0.0001163855195045,  0.0000009797513485,  0.0000011883676052 ]
  - [  -0.0006670824950561,  0.0003833919763565,  0.0013317596167326 ]
  - [   0.0000231228768826,  0.0000522406771779,  0.0000363737344742 ]
  - [   0.0000256672501564, -0.0000531189143658, -0.0000383891165257 ]
  - [  -0.0000419095158577,  0.0000003951136023, -0.0000007078051567 ]
  - [  -0.0000021737068892, -0.0000063506886363,  0.0000055674463511 ]
  - [   0.0000485461205244, -0.0000595012679696,  0.0000806469470263 ]
  - [   0.0000458545982838,  0.0000529605895281, -0.0000785402953625 ]
  - [  -0.0006640683859587, -0.0003812219947577, -0.0013324189931154 ]
  - [  -0.0006524119526148,  0.0003785938024521,  0.0013246871531010 ]
  - [   0.0001167971640825, -0.0000014882534742, -0.0000041611492634 ]
  - [  -0.0000024065375328,  0.0000034850090742, -0.0000060126185417 ]
  - [   0.0000483188778162,  0.0000564679503441, -0.0000814124941826 ]
  - [   0.0000459849834442, -0.0000562313944101,  0.0000774059444666 ]
  - [   0.0000256411731243,  0.0000524246133864,  0.0000374969094992 ]
  - [  -0.0000414699316025, -0.0000015348196030, -0.0000012870877981 ]
  - [   0.0000240206718445, -0.0000522902701050, -0.0000368803739548 ]

force_constants:
  format: "full"
  shape: [ 81, 81 ]
  elements:
  - # (1, 1)
    - [     2.265238036225288,    -0.000000000303308,    -0.000000000931878 ]
    - [    -0.000000000303308,     2.265238040803941,    -0.000000000610701 ]
    - [    -0.000000000931878,    -0.000000000610701,     2.265238042845787 ]
  - # (1, 2)
    - [     0.098711039000542,     0.037379781743295,     0.026431494933163 ]
    - [    -0.037379779572740,    -0.048844577617092,    -0.034701021159101 ]
    - [    -0.026431494914036,    -0.034701021001787,    -0.024307247253843 ]
  - # (1, 3)
    - [     0.098711038232117,    -0.037379782389026,    -0.026431496159445 ]
    - [     0.037379785588120,    -0.048844578234365,    -0.034701021542017 ]
    - [     0.026431496953941,    -0.034701020796741,    -0.024307246608957 ]
  - # (1, 4)
    - [    -0.011955675498111,     0.026513671998249,    -0.016836216939169 ]
    - [     0.101273240759220,     0.061822139906777,     0.040240855464527 ]
    - [    -0.043267721731463,    -0.005539843452471,    -0.024307253901332 ]
  - # (1, 5)
    - [    -0.001989969456300,    -0.000000000553420,    -0.000000000681730 ]
    - [    -0.000000000302742,    -0.001989969567783,     0.000000000567685 ]
    - [    -0.000000000704652,     0.000000001031615,     0.000861453538676 ]
  - # (1, 6)
    - [    -0.011955670812377,    -0.026513672127402,     0.016836214800570 ]
    - [    -0.101273248208268,     0.061822139639624,     0.040240861235465 ]
    - [     0.043267725419634,    -0.005539842547610,    -0.024307255841473 ]
  - # (1, 7)
    - [    -0.011955672860906,     0.101273224993134,    -0.043267713085127 ]
    - [     0.026513676830468,     0.061822140522590,    -0.005539839473814 ]
    - [    -0.016836220807317,     0.040240854661068,    -0.024307253845670 ]
  - # (1, 8)
    - [    -0.011955674318275,    -0.101273239580963,     0.043267716708368 ]
    - [    -0.026513675625243,     0.061822137193031,    -0.005539840293824 ]
    - [     0.016836217781943,     0.040240854179447,    -0.024307249092023 ]
  - # (1, 9)
    - [    -0.001989969938174,    -0.000000002308208,    -0.000000001886087 ]
    - [    -0.000000000352569,    -0.001989969655113,     0.000000000844595 ]
    - [     0.000000000384307,     0.000000000366212,     0.000861452563316 ]
  - # (1, 10)
    - [    -0.011955671879361,    -0.007035445698896,     0.030609401322634 ]
    - [    -0.007035450491519,    -0.003831843481591,     0.017672349036262 ]
    - [     0.109903904141536,     0.063453051480905,     0.041346725012935 ]
  - # (1, 11)
    - [    -0.001989965959654,    -0.000000001209731,    -0.000000001846575 ]
    - [    -0.000000000705985,     0.000544625632469,    -0.000896114259840 ]
    - [     0.000000000396957,    -0.000896113994571,    -0.001673143647022 ]
  - # (1, 12)
    - [    -0.011955670951250,     0.007035443324922,    -0.030609403423901 ]
    - [     0.007035449733293,    -0.003831842012487,     0.017672349465626 ]
    - [    -0.109903905208529,     0.063453049402715,     0.041346725089602 ]
  - # (1, 13)
    - [    -0.000089023941891,    -0.001097512429595,    -0.000776058744899 ]
    - [    -0.001097510609003,    -0.001356317689892,     0.000448057291609 ]
    - [    -0.000776058460724,     0.000448056759232,    -0.001673142659916 ]
  - # (1, 14)
    - [    -0.000089025209248,     0.001097510248404,     0.000776056937931 ]
    - [     0.001097511092584,    -0.001356318442833,     0.000448055771816 ]
    - [     0.000776056977681,     0.000448056567348,    -0.001673141778294 ]
  - # (1, 15)
    - [     0.000492104842560,     0.000000000311397,    -0.000000000836778 ]
    - [     0.000000002684059,     0.003791531177823,     0.002333043955032 ]
    - [     0.000000000398553,     0.002333043922475,     0.002141818991601 ]
  - # (1, 16)
    - [     0.000230073748502,     0.000000003762102,     0.000000000086027 ]
    - [     0.000000001860626,    -0.016017591832485,    -0.035344696427358 ]
    - [     0.000000001701668,    -0.126906096889470,     0.041346736008263 ]
  - # (1, 17)
    - [     0.002966668947681,    -0.001428692874710,     0.002020474702715 ]
    - [    -0.001428693057934,     0.001316960271807,    -0.001166522051044 ]
    - [     0.002020474867675,    -0.001166521720428,     0.002141819598923 ]
  - # (1, 18)
    - [     0.002966669399922,     0.001428692849973,    -0.002020475546236 ]
    - [     0.001428693153086,     0.001316962642358,    -0.001166523210215 ]
    - [    -0.002020475440137,    -0.001166522533329,     0.002141817981338 ]
  - # (1, 19)
    - [    -0.011955674533199,    -0.007035442043880,     0.109903892828805 ]
    - [    -0.007035447915883,    -0.003831840956952,     0.063453053328538 ]