# Tetrahedron method
       -1.8179897768        0.0000000000
       -1.7476360080        0.0000000000
       -1.6772822392        0.0000000000
       -1.6069284704        0.0000000000
       -1.5365747016        0.0000000000
       -1.4662209328        0.0000000000
       -1.3958671640        0.0000000000
       -1.3255133952        0.0000000000
       -1.2551596264        0.0000000000
       -1.1848058576        0.0000000000
       -1.1144520889        0.0000000000
       -1.0440983201        0.0000000000
       -0.9737445513        0.0000000000
       -0.9033907825        0.0000000000
       -0.8330370137        0.0000000000
       -0.7626832449        0.0000000000
       -0.6923294761        0.0000000000
       -0.6219757073        0.2368426591
       -0.5516219385        0.5490773155
       -0.4812681697        1.0109487351
       -0.4109144009        0.9120773624
       -0.3405606321        0.8866448884
       -0.2702068634        0.7350079933
       -0.1998530946        0.5546150184
       -0.1294993258        0.4299708131
       -0.0591455570        0.4013036030
        0.0112082118        0.4129523028
        0.0815619806        0.4641506597
        0.1519157494        0.7885328156
        0.2222695182        2.0537014859
        0.2926232870        3.0511874899
        0.3629770558        7.9499225422
        0.4333308246        5.3046665521
        0.5036845933        2.3693429926
        0.5740383621        0.7946778040
        0.6443921309        0.7223616992
        0.7147458997        0.6099854243
        0.7850996685        0.5175067535
        0.8554534373        0.3102556104
        0.9258072061        0.2059515562
        0.9961609749        0.1816413425
        1.0665147437        0.4516253920
        1.1368685125        0.8559386764
        1.2072222813        0.8801245369
        1.2775760500        0.9837992234
        1.3479298188        1.1230478148
        1.4182835876        1.0174029149
        1.4886373564        1.0697162188
        1.5589911252        1.2816871295
        1.6293448940        1.4411529739
        1.6996986628        1.0946103572
        1.7700524316        0.8328025139
        1.8404062004        0.6909353786
        1.9107599692        0.5778245635
        1.9811137380        0.4961041632
        2.0514675067        0.4059538272
        2.1218212755        0.3363688963
        2.1921750443        0.2588175424
        2.2625288131        0.1392712166
        2.3328825819        0.0000000000
        2.4032363507        0.0000000000
        2.4735901195        0.0000000000
        2.5439438883        0.0000000000
        2.6142976571        0.0000000000
        2.6846514259        0.0000000000
        2.7550051947        0.0000000000
        2.8253589634        0.0000000000
        2.8957127322        0.0000000000
        2.9660665010        0.0000000000
        3.0364202698        0.0000000000
        3.1067740386        0.0000000000
        3.1771278074        0.0000000000
        3.2474815762        0.0000000000
        3.3178353450        0.0000000000
        3.3881891138        0.0000000000
        3.4585428826        0.0000000000
        3.5288966514        0.0000000000
        3.5992504201        0.0000000000
        3.6696041889        0.0000000000
        3.7399579577        0.0000000000
        3.8103117265        0.0000000000
        3.8806654953        0.0000000000
        3.9510192641        0.0000000000
        4.0213730329        0.0000000000
        4.0917268017        0.0000000000
        4.1620805705        0.0000000000
        4.2324343393        0.0000000000
        4.3027881081        0.0000000000
        4.3731418769        0.0000000000
        4.4434956456        0.0000000000
        4.5138494144        0.0000000000
        4.5842031832        0.0000000000
        4.6545569520        0.0000000000
        4.7249107208        0.0000000000
        4.7952644896        0.0000000000
        4.8656182584        0.0000000000
        4.9359720272        0.0000000000
        5.0063257960        0.0000000000
        5.0766795648        0.0000000000
        5.1470333336        0.0000000000
        5.2173871023        0.0000000000
        5.2877408711        0.0000000000
        5.3580946399        0.0000000000
        5.4284484087        0.0000000000
        5.4988021775        0.0000000000
        5.5691559463        0.0000000000
        5.6395097151        0.0000000000
        5.7098634839        0.0000000000
        5.7802172527        0.0000000000
        5.8505710215        0.0000000000
        5.9209247903        0.0000000000
        5.9912785590        0.0000000000
        6.0616323278        0.0000000000
        6.1319860966        0.0000000000
        6.2023398654        0.0000000000
        6.2726936342        0.0000000000
        6.3430474030        0.0000000000
        6.4134011718        0.0000000000
        6.4837549406        0.0000000000
        6.5541087094        0.0000000000
        6.6244624782        0.0000000000
        6.6948162470        0.0000000000
        6.7651700157        0.0000000000
        6.8355237845        0.0000000000
        6.9058775533        0.0000000000
        6.9762313221        0.0000000000
        7.0465850909        0.0000000000
        7.1169388597        0.0481577026
        7.1872926285        0.1012363671
        7.2576463973        0.1535956721
        7.3280001661        0.2153063817
        7.3983539349        0.4650369925
        7.4687077037        0.8445775935
        7.5390614724        1.6941859812
        7.6094152412        2.0031049164
        7.6797690100        2.0462705542
        7.7501227788        2.1255641906
        7.8204765476        1.7336388800
        7.8908303164        0.9826022788
        7.9611840852        1.3921891525
        8.0315378540        1.3506833316
        8.1018916228        1.4551767049
        8.1722453916        2.9182081525
        8.2425991604        4.3546170335
        8.3129529292        3.7238444968
        8.3833066979        3.1962709471
        8.4536604667        3.1169571879
        8.5240142355        3.2093545484
        8.5943680043        2.1293538527
        8.6647217731        1.6552565059
        8.7350755419        1.3771357645
        8.8054293107        1.1958902221
        8.8757830795        1.0281292823
        8.9461368483        0.8351509106
        9.0164906171        0.5767382465
        9.0868443859        0.7332122496
        9.1571981546        0.8933021690
        9.2275519234        1.1005288485
        9.2979056922        1.5555529198
        9.3682594610        1.6306139591
        9.4386132298        1.5434964171
        9.5089669986        1.3029661846
        9.5793207674        1.0594238805
        9.6496745362        0.5762239731
        9.7200283050        0.7369955215
        9.7903820738        0.8975608995
        9.8607358426        1.1182132575
        9.9310896113        1.5974293322
       10.0014433801        2.7630124314
       10.0717971489        2.0551387643
       10.1421509177        1.7447988600
       10.2125046865        1.6624794704
       10.2828584553        1.6750279118
       10.3532122241        1.8293748955
       10.4235659929        2.2588443309
       10.4939197617        3.5062147982
       10.5642735305        2.0154643998
       10.6346272993        1.4827649709
       10.7049810680        1.1614176074
       10.7753348368        0.9310758199
       10.8456886056        0.7422526941
       10.9160423744        0.5606727664
       10.9863961432        0.3921972144
       11.0567499120        0.1487373015
       11.1271036808        0.0000000000
       11.1974574496        0.0000000000
       11.2678112184        0.0000000000
       11.3381649872        0.0000000000
       11.4085187560        0.0000000000
       11.4788725247        0.0000000000
       11.5492262935        0.0000000000
       11.6195800623        0.0000000000
       11.6899338311        0.0000000000
       11.7602875999        0.0000000000
       11.8306413687        0.0000000000
       11.9009951375        0.0000000000
       11.9713489063        0.0000000000
       12.0417026751        0.0000000000
       12.1120564439        0.0000000000
       12.1824102127        0.0000000000
       12.2527639814        0.0000000000
