# Thermal properties / unit cell (natom)

unit:
  temperature:   K
  free_energy:   kJ/mol
  entropy:       J/K/mol
  heat_capacity: J/K/mol

natom: 10   
cutoff_frequency: 0.00000
num_modes: 168750
num_integrated_modes: 167996

zero_point_energy:      27.4520564

thermal_properties:
- temperature:         0.0000000
  free_energy:        27.4520564
  entropy:             0.0000000
  heat_capacity:       0.0000000
  energy:             27.4520564

- temperature:        10.0000000
  free_energy:        27.4356080
  entropy:             5.0225542
  heat_capacity:      10.0037239
  energy:             27.4858335

- temperature:        20.0000000
  free_energy:        27.3234643
  entropy:            18.3306292
  heat_capacity:      31.2354947
  energy:             27.6900769

- temperature:        30.0000000
  free_energy:        27.0580439
  entropy:            35.0741570
  heat_capacity:      52.7301049
  energy:             28.1102686

- temperature:        40.0000000
  free_energy:        26.6177501
  entropy:            53.1185400
  heat_capacity:      73.5516784
  energy:             28.7424917

- temperature:        50.0000000
  free_energy:        25.9940430
  entropy:            71.6623554
  heat_capacity:      93.1418456
  energy:             29.5771608

- temperature:        60.0000000
  free_energy:        25.1843331
  entropy:            90.2623427
  heat_capacity:     111.1598593
  energy:             30.6000737

- temperature:        70.0000000
  free_energy:        24.1895402
  entropy:           108.6420925
  heat_capacity:     127.4202317
  energy:             31.7944866

- temperature:        80.0000000
  free_energy:        23.0128406
  entropy:           126.6190862
  heat_capacity:     141.8512118
  energy:             33.1423675

- temperature:        90.0000000
  free_energy:        21.6589050
  entropy:           144.0736690
  heat_capacity:     154.4923228
  energy:             34.6255352

- temperature:       100.0000000
  free_energy:        20.1333553
  entropy:           160.9329952
  heat_capacity:     165.4672076
  energy:             36.2266548

- temperature:       110.0000000
  free_energy:        18.4423576
  entropy:           177.1593928
  heat_capacity:     174.9460079
  energy:             37.9298909

- temperature:       120.0000000
  free_energy:        16.5923196
  entropy:           192.7407257
  heat_capacity:     183.1141197
  energy:             39.7212067

- temperature:       130.0000000
  free_energy:        14.5896761
  entropy:           207.6825520
  heat_capacity:     190.1520698
  energy:             41.5884078

- temperature:       140.0000000
  free_energy:        12.4407437
  entropy:           222.0020677
  heat_capacity:     196.2248820
  energy:             43.5210332

- temperature:       150.0000000
  free_energy:        10.1516283
  entropy:           235.7236436
  heat_capacity:     201.4778177
  energy:             45.5101748

- temperature:       160.0000000
  free_energy:         7.7281696
  entropy:           248.8756605
  heat_capacity:     206.0358250
  energy:             47.5482753

- temperature:       170.0000000
  free_energy:         5.1759129
  entropy:           261.4883361
  heat_capacity:     210.0048862
  energy:             49.6289301

- temperature:       180.0000000
  free_energy:         2.5000986
  entropy:           273.5922782
  heat_capacity:     213.4741686
  energy:             51.7467087

- temperature:       190.0000000
  free_energy:        -0.2943372
  entropy:           285.2175530
  heat_capacity:     216.5183745
  energy:             53.8969979

- temperature:       200.0000000
  free_energy:        -3.2027536
  entropy:           296.3931111
  heat_capacity:     219.1999864
  energy:             56.0758686

- temperature:       210.0000000
  free_energy:        -6.2207922
  entropy:           307.1464588
  heat_capacity:     221.5712742
  energy:             58.2799641

- temperature:       220.0000000
  free_energy:        -9.3443619
  entropy:           317.5034925
  heat_capacity:     223.6760256
  energy:             60.5064064

- temperature:       230.0000000
  free_energy:       -12.5696220
  entropy:           327.4884407
  heat_capacity:     225.5510040
  energy:             62.7527194

- temperature:       240.0000000
  free_energy:       -15.8929659
  entropy:           337.1238757
  heat_capacity:     227.2271607
  energy:             65.0167643

- temperature:       250.0000000
  free_energy:       -19.3110045
  entropy:           346.4307678
  heat_capacity:     228.7306367
  energy:             67.2966874

- temperature:       260.0000000
  free_energy:       -22.8205510
  entropy:           355.4285642
  heat_capacity:     230.0835842
  energy:             69.5908757

- temperature:       270.0000000
  free_energy:       -26.4186057
  entropy:           364.1352820
  heat_capacity:     231.3048414
  energy:             71.8979204

- temperature:       280.0000000
  free_energy:       -30.1023422
  entropy:           372.5676055
  heat_capacity:     232.4104853
  energy:             74.2165874

- temperature:       290.0000000
  free_energy:       -33.8690948
  entropy:           380.7409851
  heat_capacity:     233.4142857
  energy:             76.5457909

- temperature:       300.0000000
  free_energy:       -37.7163466
  entropy:           388.6697326
  heat_capacity:     234.3280779
  energy:             78.8845732

- temperature:       310.0000000
  free_energy:       -41.6417183
  entropy:           396.3671126
  heat_capacity:     235.1620700
  energy:             81.2320866

- temperature:       320.0000000
  free_energy:       -45.6429587
  entropy:           403.8454278
  heat_capacity:     235.9250969
  energy:             83.5875782

- temperature:       330.0000000
  free_energy:       -49.7179348
  entropy:           411.1160984
  heat_capacity:     236.6248304
  energy:             85.9503777

- temperature:       340.0000000
  free_energy:       -53.8646240
  entropy:           418.1897358
  heat_capacity:     237.2679538
  energy:             88.3198862

- temperature:       350.0000000
  free_energy:       -58.0811057
  entropy:           425.0762095
  heat_capacity:     237.8603078
  energy:             90.6955676

- temperature:       360.0000000
  free_energy:       -62.3655550
  entropy:           431.7847090
  heat_capacity:     238.4070122
  energy:             93.0769403

- temperature:       370.0000000
  free_energy:       -66.7162353
  entropy:           438.3238000
  heat_capacity:     238.9125680
  energy:             95.4635707

- temperature:       380.0000000
  free_energy:       -71.1314930
  entropy:           444.7014756
  heat_capacity:     239.3809436
  energy:             97.8550677

- temperature:       390.0000000
  free_energy:       -75.6097517
  entropy:           450.9252028
  heat_capacity:     239.8156473
  energy:            100.2510774

- temperature:       400.0000000
  free_energy:       -80.1495072
  entropy:           457.0019651
  heat_capacity:     240.2197890
  energy:            102.6512789

- temperature:       410.0000000
  free_energy:       -84.7493229
  entropy:           462.9383012
  heat_capacity:     240.5961323
  energy:            105.0553806

- temperature:       420.0000000
  free_energy:       -89.4078256
  entropy:           468.7403397
  heat_capacity:     240.9471395
  energy:            107.4631171

- temperature:       430.0000000
  free_energy:       -94.1237013
  entropy:           474.4138315
  heat_capacity:     241.2750093
  energy:            109.8742463

- temperature:       440.0000000
  free_energy:       -98.8956918
  entropy:           479.9641784
  heat_capacity:     241.5817095
  energy:            112.2885467

- temperature:       450.0000000
  free_energy:      -103.7225913
  entropy:           485.3964603
  heat_capacity:     241.8690056
  energy:            114.7058158

- temperature:       460.0000000
  free_energy:      -108.6032434
  entropy:           490.7154584
  heat_capacity:     242.1384846
  energy:            117.1258675

- temperature:       470.0000000
  free_energy:      -113.5365379
  entropy:           495.9256783
  heat_capacity:     242.3915761
  energy:            119.5485309

- temperature:       480.0000000
  free_energy:      -118.5214086
  entropy:           501.0313693
  heat_capacity:     242.6295705
  energy:            121.9736487

- temperature:       490.0000000
  free_energy:      -123.5568303
  entropy:           506.0365432
  heat_capacity:     242.8536347
  energy:            124.4010759

- temperature:       500.0000000
  free_energy:      -128.6418170
  entropy:           510.9449910
  heat_capacity:     243.0648261
  energy:            126.8306785

- temperature:       510.0000000
  free_energy:      -133.7754197
  entropy:           515.7602987
  heat_capacity:     243.2641043
  energy:            129.2623327

- temperature:       520.0000000
  free_energy:      -138.9567239
  entropy:           520.4858609
  heat_capacity:     243.4523421
  energy:            131.6959238

- temperature:       530.0000000
  free_energy:      -144.1848485
  entropy:           525.1248940
  heat_capacity:     243.6303342
  energy:            134.1313454

- temperature:       540.0000000
  free_energy:      -149.4589435
  entropy:           529.6804486
  heat_capacity:     243.7988056
  energy:            136.5684987

- temperature:       550.0000000
  free_energy:      -154.7781889
  entropy:           534.1554197
  heat_capacity:     243.9584189
  energy:            139.0072920

- temperature:       560.0000000
  free_energy:      -160.1417925
  entropy:           538.5525573
  heat_capacity:     244.1097801
  energy:            141.4476396

- temperature:       570.0000000
  free_energy:      -165.5489893
  entropy:           542.8744758
  heat_capacity:     244.2534451
  energy:            143.8894619

- temperature:       580.0000000
  free_energy:      -170.9990396
  entropy:           547.1236623
  heat_capacity:     244.3899235
  energy:            146.3326845

- temperature:       590.0000000
  free_energy:      -176.4912280
  entropy:           551.3024847
  heat_capacity:     244.5196841
  energy:            148.7772380

- temperature:       600.0000000
  free_energy:      -182.0248623
  entropy:           555.4131992
  heat_capacity:     244.6431580
  energy:            151.2230573

- temperature:       610.0000000
  free_energy:      -187.5992721
  entropy:           559.4579568
  heat_capacity:     244.7607428
  energy:            153.6700815

- temperature:       620.0000000
  free_energy:      -193.2138084
  entropy:           563.4388099
  heat_capacity:     244.8728050
  energy:            156.1182537

- temperature:       630.0000000
  free_energy:      -198.8678419
  entropy:           567.3577178
  heat_capacity:     244.9796833
  energy:            158.5675204

- temperature:       640.0000000
  free_energy:      -204.5607625
  entropy:           571.2165526
  heat_capacity:     245.0816911
  energy:            161.0178312

- temperature:       650.0000000
  free_energy:      -210.2919786
  entropy:           575.0171039
  heat_capacity:     245.1791183
  energy:            163.4691389

- temperature:       660.0000000
  free_energy:      -216.0609160
  entropy:           578.7610836
  heat_capacity:     245.2722340
  energy:            165.9213992

- temperature:       670.0000000
  free_energy:      -221.8670172
  entropy:           582.4501302
  heat_capacity:     245.3612876
  energy:            168.3745700

- temperature:       680.0000000
  free_energy:      -227.7097408
  entropy:           586.0858131
  heat_capacity:     245.4465109
  energy:            170.8286121

- temperature:       690.0000000
  free_energy:      -233.5885606
  entropy:           589.6696360
  heat_capacity:     245.5281197
  energy:            173.2834882

- temperature:       700.0000000
  free_energy:      -239.5029654
  entropy:           593.2030408
  heat_capacity:     245.6063145
  energy:            175.7391632

- temperature:       710.0000000
  free_energy:      -245.4524580
  entropy:           596.6874109
  heat_capacity:     245.6812824
  energy:            178.1956038

- temperature:       720.0000000
  free_energy:      -251.4365546
  entropy:           600.1240740
  heat_capacity:     245.7531978
  energy:            180.6527786

- temperature:       730.0000000
  free_energy:      -257.4547847
  entropy:           603.5143052
  heat_capacity:     245.8222237
  energy:            183.1106581

- temperature:       740.0000000
  free_energy:      -263.5066900
  entropy:           606.8593298
  heat_capacity:     245.8885121
  energy:            185.5692140

- temperature:       750.0000000
  free_energy:      -269.5918245
  entropy:           610.1603256
  heat_capacity:     245.9522054
  energy:            188.0284197

- temperature:       760.0000000
  free_energy:      -275.7097536
  entropy:           613.4184256
  heat_capacity:     246.0134369
  energy:            190.4882499

- temperature:       770.0000000
  free_energy:      -281.8600537
  entropy:           616.6347199
  heat_capacity:     246.0723313
  energy:            192.9486806

- temperature:       780.0000000
  free_energy:      -288.0423121
  entropy:           619.8102580
  heat_capacity:     246.1290057
  energy:            195.4096891

- temperature:       790.0000000
  free_energy:      -294.2561264
  entropy:           622.9460507
  heat_capacity:     246.1835699
  energy:            197.8712537

- temperature:       800.0000000
  free_energy:      -300.5011039
  entropy:           626.0430721
  heat_capacity:     246.2361271
  energy:            200.3333538

- temperature:       810.0000000
  free_energy:      -306.7768617
  entropy:           629.1022612
  heat_capacity:     246.2867742
  energy:            202.7959699

- temperature:       820.0000000
  free_energy:      -313.0830260
  entropy:           632.1245235
  heat_capacity:     246.3356023
  energy:            205.2590832

- temperature:       830.0000000
  free_energy:      -319.4192320
  entropy:           635.1107327
  heat_capacity:     246.3826973
  energy:            207.7226761

- temperature:       840.0000000
  free_energy:      -325.7851233
  entropy:           638.0617322
  heat_capacity:     246.4281400
  energy:            210.1867317

- temperature:       850.0000000
  free_energy:      -332.1803520
  entropy:           640.9783361
  heat_capacity:     246.4720066
  energy:            212.6512337

- temperature:       860.0000000
  free_energy:      -338.6045780
  entropy:           643.8613312
  heat_capacity:     246.5143689
  energy:            215.1161668

- temperature:       870.0000000
  free_energy:      -345.0574691
  entropy:           646.7114775
  heat_capacity:     246.5552947
  energy:            217.5815163

- temperature:       880.0000000
  free_energy:      -351.5387005
  entropy:           649.5295098
  heat_capacity:     246.5948481
  energy:            220.0472681

- temperature:       890.0000000
  free_energy:      -358.0479547
  entropy:           652.3161388
  heat_capacity:     246.6330896
  energy:            222.5134089

- temperature:       900.0000000
  free_energy:      -364.5849209
  entropy:           655.0720518
  heat_capacity:     246.6700765
  energy:            224.9799257

- temperature:       910.0000000
  free_energy:      -371.1492955
  entropy:           657.7979142
  heat_capacity:     246.7058629
  energy:            227.4468064

- temperature:       920.0000000
  free_energy:      -377.7407812
  entropy:           660.4943699
  heat_capacity:     246.7405000
  energy:            229.9140392

- temperature:       930.0000000
  free_energy:      -384.3590870
  entropy:           663.1620427
  heat_capacity:     246.7740365
  energy:            232.3816127

- temperature:       940.0000000
  free_energy:      -391.0039281
  entropy:           665.8015367
  heat_capacity:     246.8065184
  energy:            234.8495164

- temperature:       950.0000000
  free_energy:      -397.6750257
  entropy:           668.4134373
  heat_capacity:     246.8379893
  energy:            237.3177397

- temperature:       960.0000000
  free_energy:      -404.3721068
  entropy:           670.9983122
  heat_capacity:     246.8684907
  energy:            239.7862729

- temperature:       970.0000000
  free_energy:      -411.0949037
  entropy:           673.5567115
  heat_capacity:     246.8980619
  energy:            242.2551064

- temperature:       980.0000000
  free_energy:      -417.8431545
  entropy:           676.0891691
  heat_capacity:     246.9267402
  energy:            244.7242312

- temperature:       990.0000000
  free_energy:      -424.6166024
  entropy:           678.5962028
  heat_capacity:     246.9545612
  energy:            247.1936384

- temperature:      1000.0000000
  free_energy:      -431.4149955
  entropy:           681.0783152
  heat_capacity:     246.9815587
  energy:            249.6633197
