# Thermal properties / unit cell (natom)

unit:
  temperature:   K
  free_energy:   kJ/mol
  entropy:       J/K/mol
  heat_capacity: J/K/mol

natom: 20   
cutoff_frequency: 0.00000
num_modes: 166320
num_integrated_modes: 166319

zero_point_energy:      78.1966563

thermal_properties:
- temperature:         0.0000000
  free_energy:        78.1966563
  entropy:             0.0000000
  heat_capacity:       0.0000000
  energy:             78.1966563

- temperature:        10.0000000
  free_energy:        78.1920660
  entropy:             1.6767570
  heat_capacity:       5.2026022
  energy:             78.2088336

- temperature:        20.0000000
  free_energy:        78.1296173
  entropy:            12.6783145
  heat_capacity:      32.3365573
  energy:             78.3831835

- temperature:        30.0000000
  free_energy:        77.9108302
  entropy:            31.9634481
  heat_capacity:      64.6188368
  energy:             78.8697337

- temperature:        40.0000000
  free_energy:        77.4794419
  entropy:            54.6285013
  heat_capacity:      93.8469105
  energy:             79.6645820

- temperature:        50.0000000
  free_energy:        76.8143667
  entropy:            78.5068618
  heat_capacity:     120.9805431
  energy:             80.7397098

- temperature:        60.0000000
  free_energy:        75.9075946
  entropy:           102.9119037
  heat_capacity:     147.5112800
  energy:             82.0823088

- temperature:        70.0000000
  free_energy:        74.7550671
  entropy:           127.6376644
  heat_capacity:     173.9471699
  energy:             83.6897036

- temperature:        80.0000000
  free_energy:        73.3541323
  entropy:           152.5754632
  heat_capacity:     200.0496412
  energy:             85.5601694

- temperature:        90.0000000
  free_energy:        71.7032442
  entropy:           177.6066995
  heat_capacity:     225.2990535
  energy:             87.6878471

- temperature:       100.0000000
  free_energy:        69.8021410
  entropy:           202.5951055
  heat_capacity:     249.2043955
  energy:             90.0616516

- temperature:       110.0000000
  free_energy:        67.6519442
  entropy:           227.4033637
  heat_capacity:     271.4292701
  energy:             92.6663142

- temperature:       120.0000000
  free_energy:        65.2550880
  entropy:           251.9081026
  heat_capacity:     291.8056781
  energy:             95.4840603

- temperature:       130.0000000
  free_energy:        62.6151350
  entropy:           276.0077846
  heat_capacity:     310.3009123
  energy:             98.4961470

- temperature:       140.0000000
  free_energy:        59.7365440
  entropy:           299.6246902
  heat_capacity:     326.9745770
  energy:            101.6840007

- temperature:       150.0000000
  free_energy:        56.6244374
  entropy:           322.7033893
  heat_capacity:     341.9412838
  energy:            105.0299458

- temperature:       160.0000000
  free_energy:        53.2843929
  entropy:           345.2076021
  heat_capacity:     355.3431467
  energy:            108.5176093

- temperature:       170.0000000
  free_energy:        49.7222706
  entropy:           367.1166258
  heat_capacity:     367.3314148
  energy:            112.1320970

- temperature:       180.0000000
  free_energy:        45.9440738
  entropy:           388.4219426
  heat_capacity:     378.0551518
  energy:            115.8600235

- temperature:       190.0000000
  free_energy:        41.9558425
  entropy:           409.1242741
  heat_capacity:     387.6548449
  energy:            119.6894546

- temperature:       200.0000000
  free_energy:        37.7635737
  entropy:           429.2311524
  heat_capacity:     396.2592499
  energy:            123.6098042

- temperature:       210.0000000
  free_energy:        33.3731633
  entropy:           448.7549827
  heat_capacity:     403.9842516
  energy:            127.6117097

- temperature:       220.0000000
  free_energy:        28.7903652
  entropy:           467.7115344
  heat_capacity:     410.9329154
  energy:            131.6869028

- temperature:       230.0000000
  free_energy:        24.0207638
  entropy:           486.1187862
  heat_capacity:     417.1961921
  energy:            135.8280846

- temperature:       240.0000000
  free_energy:        19.0697562
  entropy:           503.9960547
  heat_capacity:     422.8539436
  energy:            140.0288093

- temperature:       250.0000000
  free_energy:        13.9425426
  entropy:           521.3633458
  heat_capacity:     427.9760857
  energy:            144.2833791

- temperature:       260.0000000
  free_energy:         8.6441218
  entropy:           538.2408786
  heat_capacity:     432.6237313
  energy:            148.5867502

- temperature:       270.0000000
  free_energy:         3.1792906
  entropy:           554.6487414
  heat_capacity:     436.8502703
  energy:            152.9344508

- temperature:       280.0000000
  free_energy:        -2.4473533
  entropy:           570.6066477
  heat_capacity:     440.7023567
  energy:            157.3225081

- temperature:       290.0000000
  free_energy:        -8.2314065
  entropy:           586.1337682
  heat_capacity:     444.2207900
  energy:            161.7473863

- temperature:       300.0000000
  free_energy:       -14.1686545
  entropy:           601.2486192
  heat_capacity:     447.4412925
  energy:            166.2059313

- temperature:       310.0000000
  free_energy:       -20.2550641
  entropy:           615.9689933
  heat_capacity:     450.3951880
  energy:            170.6953239

- temperature:       320.0000000
  free_energy:       -26.4867763
  entropy:           630.3119209
  heat_capacity:     453.1099893
  energy:            175.2130384

- temperature:       330.0000000
  free_energy:       -32.8600986
  entropy:           644.2936553
  heat_capacity:     455.6099075
  energy:            179.7568077

- temperature:       340.0000000
  free_energy:       -39.3714971
  entropy:           657.9296730
  heat_capacity:     457.9162893
  energy:            184.3245917

- temperature:       350.0000000
  free_energy:       -46.0175888
  entropy:           671.2346864
  heat_capacity:     460.0479942
  energy:            188.9145515

- temperature:       360.0000000
  free_energy:       -52.7951341
  entropy:           684.2226648
  heat_capacity:     462.0217186
  energy:            193.5250252

- temperature:       370.0000000
  free_energy:       -59.7010295
  entropy:           696.9068603
  heat_capacity:     463.8522746
  energy:            198.1545088

- temperature:       380.0000000
  free_energy:       -66.7323006
  entropy:           709.2998373
  heat_capacity:     465.5528297
  energy:            202.8016375

- temperature:       390.0000000
  free_energy:       -73.8860953
  entropy:           721.4135041
  heat_capacity:     467.1351140
  energy:            207.4651713

- temperature:       400.0000000
  free_energy:       -81.1596774
  entropy:           733.2591450
  heat_capacity:     468.6095983
  energy:            212.1439806

- temperature:       410.0000000
  free_energy:       -88.5504205
  entropy:           744.8474530
  heat_capacity:     469.9856479
  energy:            216.8370352

- temperature:       420.0000000
  free_energy:       -96.0558025
  entropy:           756.1885620
  heat_capacity:     471.2716563
  energy:            221.5433935

- temperature:       430.0000000
  free_energy:      -103.6733998
  entropy:           767.2920773
  heat_capacity:     472.4751604
  energy:            226.2621934

- temperature:       440.0000000
  free_energy:      -111.4008825
  entropy:           778.1671065
  heat_capacity:     473.6029407
  energy:            230.9926444

- temperature:       450.0000000
  free_energy:      -119.2360092
  entropy:           788.8222877
  heat_capacity:     474.6611089
  energy:            235.7340203

- temperature:       460.0000000
  free_energy:      -127.1766228
  entropy:           799.2658169
  heat_capacity:     475.6551834
  energy:            240.4856530

- temperature:       470.0000000
  free_energy:      -135.2206460
  entropy:           809.5054744
  heat_capacity:     476.5901561
  energy:            245.2469270

- temperature:       480.0000000
  free_energy:      -143.3660774
  entropy:           819.5486491
  heat_capacity:     477.4705502
  energy:            250.0172742

- temperature:       490.0000000
  free_energy:      -151.6109875
  entropy:           829.4023617
  heat_capacity:     478.3004712
  energy:            254.7961698

- temperature:       500.0000000
  free_energy:      -159.9535153
  entropy:           839.0732864
  heat_capacity:     479.0836515
  energy:            259.5831279

- temperature:       510.0000000
  free_energy:      -168.3918651
  entropy:           848.5677715
  heat_capacity:     479.8234896
  energy:            264.3776984

- temperature:       520.0000000
  free_energy:      -176.9243028
  entropy:           857.8918584
  heat_capacity:     480.5230852
  energy:            269.1794636

- temperature:       530.0000000
  free_energy:      -185.5491535
  entropy:           867.0512998
  heat_capacity:     481.1852691
  energy:            273.9880354

- temperature:       540.0000000
  free_energy:      -194.2647983
  entropy:           876.0515762
  heat_capacity:     481.8126307
  energy:            278.8030529

- temperature:       550.0000000
  free_energy:      -203.0696719
  entropy:           884.8979123
  heat_capacity:     482.4075421
  energy:            283.6241799

- temperature:       560.0000000
  free_energy:      -211.9622600
  entropy:           893.5952908
  heat_capacity:     482.9721789
  energy:            288.4511028

- temperature:       570.0000000
  free_energy:      -220.9410971
  entropy:           902.1484671
  heat_capacity:     483.5085395
  energy:            293.2835292

- temperature:       580.0000000
  free_energy:      -230.0047638
  entropy:           910.5619817
  heat_capacity:     484.0184619
  energy:            298.1211855

- temperature:       590.0000000
  free_energy:      -239.1518856
  entropy:           918.8401722
  heat_capacity:     484.5036386
  energy:            302.9638160

- temperature:       600.0000000
  free_energy:      -248.3811301
  entropy:           926.9871851
  heat_capacity:     484.9656303
  energy:            307.8111810

- temperature:       610.0000000
  free_energy:      -257.6912053
  entropy:           935.0069859
  heat_capacity:     485.4058775
  energy:            312.6630561

- temperature:       620.0000000
  free_energy:      -267.0808584
  entropy:           942.9033693
  heat_capacity:     485.8257119
  energy:            317.5192305

- temperature:       630.0000000
  free_energy:      -276.5488734
  entropy:           950.6799680
  heat_capacity:     486.2263655
  energy:            322.3795064

- temperature:       640.0000000
  free_energy:      -286.0940701
  entropy:           958.3402622
  heat_capacity:     486.6089795
  energy:            327.2436977

- temperature:       650.0000000
  free_energy:      -295.7153021
  entropy:           965.8875870
  heat_capacity:     486.9746122
  energy:            332.1116294

- temperature:       660.0000000
  free_energy:      -305.4114559
  entropy:           973.3251403
  heat_capacity:     487.3242463
  energy:            336.9831367

- temperature:       670.0000000
  free_energy:      -315.1814493
  entropy:           980.6559901
  heat_capacity:     487.6587945
  energy:            341.8580641

- temperature:       680.0000000
  free_energy:      -325.0242299
  entropy:           987.8830809
  heat_capacity:     487.9791063
  energy:            346.7362651

- temperature:       690.0000000
  free_energy:      -334.9387745
  entropy:           995.0092403
  heat_capacity:     488.2859725
  energy:            351.6176014

- temperature:       700.0000000
  free_energy:      -344.9240873
  entropy:          1002.0371850
  heat_capacity:     488.5801299
  energy:            356.5019422

- temperature:       710.0000000
  free_energy:      -354.9791995
  entropy:          1008.9695259
  heat_capacity:     488.8622663
  energy:            361.3891639

- temperature:       720.0000000
  free_energy:      -365.1031675
  entropy:          1015.8087738
  heat_capacity:     489.1330235
  energy:            366.2791496

- temperature:       730.0000000
  free_energy:      -375.2950727
  entropy:          1022.5573441
  heat_capacity:     489.3930015
  energy:            371.1717885

- temperature:       740.0000000
  free_energy:      -385.5540199
  entropy:          1029.2175615
  heat_capacity:     489.6427616
  energy:            376.0669756

- temperature:       750.0000000
  free_energy:      -395.8791369
  entropy:          1035.7916644
  heat_capacity:     489.8828291
  energy:            380.9646114

- temperature:       760.0000000
  free_energy:      -406.2695734
  entropy:          1042.2818090
  heat_capacity:     490.1136962
  energy:            385.8646015

- temperature:       770.0000000
  free_energy:      -416.7245002
  entropy:          1048.6900732
  heat_capacity:     490.3358245
  energy:            390.7668562

- temperature:       780.0000000
  free_energy:      -427.2431086
  entropy:          1055.0184601
  heat_capacity:     490.5496471
  energy:            395.6712903

- temperature:       790.0000000
  free_energy:      -437.8246096
  entropy:          1061.2689017
  heat_capacity:     490.7555708
  energy:            400.5778228

- temperature:       800.0000000
  free_energy:      -448.4682330
  entropy:          1067.4432621
  heat_capacity:     490.9539780
  energy:            405.4863766

- temperature:       810.0000000
  free_energy:      -459.1732272
  entropy:          1073.5433404
  heat_capacity:     491.1452281
  energy:            410.3968785

- temperature:       820.0000000
  free_energy:      -469.9388580
  entropy:          1079.5708738
  heat_capacity:     491.3296596
  energy:            415.3092585

- temperature:       830.0000000
  free_energy:      -480.7644085
  entropy:          1085.5275403
  heat_capacity:     491.5075914
  energy:            420.2234500

- temperature:       840.0000000
  free_energy:      -491.6491780
  entropy:          1091.4149615
  heat_capacity:     491.6793237
  energy:            425.1393896

- temperature:       850.0000000
  free_energy:      -502.5924821
  entropy:          1097.2347046
  heat_capacity:     491.8451401
  energy:            430.0570168

- temperature:       860.0000000
  free_energy:      -513.5936516
  entropy:          1102.9882851
  heat_capacity:     492.0053078
  energy:            434.9762736

- temperature:       870.0000000
  free_energy:      -524.6520322
  entropy:          1108.6771691
  heat_capacity:     492.1600796
  energy:            439.8971050

- temperature:       880.0000000
  free_energy:      -535.7669840
  entropy:          1114.3027751
  heat_capacity:     492.3096940
  energy:            444.8194580

- temperature:       890.0000000
  free_energy:      -546.9378813
  entropy:          1119.8664761
  heat_capacity:     492.4543767
  energy:            449.7432824

- temperature:       900.0000000
  free_energy:      -558.1641116
  entropy:          1125.3696016
  heat_capacity:     492.5943412
  energy:            454.6685298

- temperature:       910.0000000
  free_energy:      -569.4450757
  entropy:          1130.8134394
  heat_capacity:     492.7297897
  energy:            459.5951542

- temperature:       920.0000000
  free_energy:      -580.7801870
  entropy:          1136.1992371
  heat_capacity:     492.8609135
  energy:            464.5231112

- temperature:       930.0000000
  free_energy:      -592.1688710
  entropy:          1141.5282039
  heat_capacity:     492.9878943
  energy:            469.4523586

- temperature:       940.0000000
  free_energy:      -603.6105655
  entropy:          1146.8015121
  heat_capacity:     493.1109039
  energy:            474.3828559

- temperature:       950.0000000
  free_energy:      -615.1047195
  entropy:          1152.0202985
  heat_capacity:     493.2301057
  energy:            479.3145640

- temperature:       960.0000000
  free_energy:      -626.6507934
  entropy:          1157.1856659
  heat_capacity:     493.3456548
  energy:            484.2474458

- temperature:       970.0000000
  free_energy:      -638.2482584
  entropy:          1162.2986843
  heat_capacity:     493.4576982
  energy:            489.1814654

- temperature:       980.0000000
  free_energy:      -649.8965961
  entropy:          1167.3603925
  heat_capacity:     493.5663760
  energy:            494.1165885

- temperature:       990.0000000
  free_energy:      -661.5952985
  entropy:          1172.3717987
  heat_capacity:     493.6718211
  energy:            499.0527822

- temperature:      1000.0000000
  free_energy:      -673.3438676
  entropy:          1177.3338823
  heat_capacity:     493.7741600
  energy:            503.9900146
