# Thermal properties / unit cell (natom)

unit:
  temperature:   K
  free_energy:   kJ/mol
  entropy:       J/K/mol
  heat_capacity: J/K/mol

natom: 3    
cutoff_frequency: 0.00000
num_modes: 324000
num_integrated_modes: 318554

zero_point_energy:      11.4985577

thermal_properties:
- temperature:         0.0000000
  free_energy:        11.4985577
  entropy:             0.0000000
  heat_capacity:       0.0000000
  energy:             11.4985577

- temperature:        10.0000000
  free_energy:        11.4959382
  entropy:             0.8477543
  heat_capacity:       1.9668910
  energy:             11.5044158

- temperature:        20.0000000
  free_energy:        11.4737495
  entropy:             3.9148975
  heat_capacity:       7.8025005
  energy:             11.5520474

- temperature:        30.0000000
  free_energy:        11.4138506
  entropy:             8.1394272
  heat_capacity:      13.1003167
  energy:             11.6580334

- temperature:        40.0000000
  free_energy:        11.3107828
  entropy:            12.4455336
  heat_capacity:      16.8158402
  energy:             11.8086041

- temperature:        50.0000000
  free_energy:        11.1657183
  entropy:            16.5278926
  heat_capacity:      19.8460531
  energy:             11.9921129

- temperature:        60.0000000
  free_energy:        10.9808898
  entropy:            20.4120095
  heat_capacity:      22.8846569
  energy:             12.2056103

- temperature:        70.0000000
  free_energy:        10.7578556
  entropy:            24.1818073
  heat_capacity:      26.1474643
  energy:             12.4505821

- temperature:        80.0000000
  free_energy:        10.4974339
  entropy:            27.8963546
  heat_capacity:      29.5827138
  energy:             12.7291423

- temperature:        90.0000000
  free_energy:        10.2000240
  entropy:            31.5815150
  heat_capacity:      33.0556470
  energy:             13.0423603

- temperature:       100.0000000
  free_energy:         9.8658892
  entropy:            35.2406427
  heat_capacity:      36.4393878
  energy:             13.3899535

- temperature:       110.0000000
  free_energy:         9.4953244
  entropy:            38.8656639
  heat_capacity:      39.6442380
  energy:             13.7705474

- temperature:       120.0000000
  free_energy:         9.0887300
  entropy:            42.4444730
  heat_capacity:      42.6186355
  energy:             14.1820667

- temperature:       130.0000000
  free_energy:         8.6466295
  entropy:            45.9649785
  heat_capacity:      45.3406675
  energy:             14.6220767

- temperature:       140.0000000
  free_energy:         8.1696592
  entropy:            49.4169444
  heat_capacity:      47.8084818
  energy:             15.0880314

- temperature:       150.0000000
  free_energy:         7.6585453
  entropy:            52.7925833
  heat_capacity:      50.0324471
  energy:             15.5774328

- temperature:       160.0000000
  free_energy:         7.1140800
  entropy:            56.0865235
  heat_capacity:      52.0295545
  energy:             16.0879238

- temperature:       170.0000000
  free_energy:         6.5370982
  entropy:            59.2955049
  heat_capacity:      53.8197306
  energy:             16.6173341

- temperature:       180.0000000
  free_energy:         5.9284584
  entropy:            62.4179941
  heat_capacity:      55.4235588
  energy:             17.1636973

- temperature:       190.0000000
  free_energy:         5.2890274
  entropy:            65.4538066
  heat_capacity:      56.8609591
  energy:             17.7252506

- temperature:       200.0000000
  free_energy:         4.6196685
  entropy:            68.4037766
  heat_capacity:      58.1504901
  energy:             18.3004238

- temperature:       210.0000000
  free_energy:         3.9212328
  entropy:            71.2694821
  heat_capacity:      59.3090365
  energy:             18.8878240

- temperature:       220.0000000
  free_energy:         3.1945528
  entropy:            74.0530263
  heat_capacity:      60.3517273
  energy:             19.4862186

- temperature:       230.0000000
  free_energy:         2.4404380
  entropy:            76.7568667
  heat_capacity:      61.2919841
  energy:             20.0945173

- temperature:       240.0000000
  free_energy:         1.6596722
  entropy:            79.3836841
  heat_capacity:      62.1416383
  energy:             20.7117564

- temperature:       250.0000000
  free_energy:         0.8530117
  entropy:            81.9362846
  heat_capacity:      62.9110781
  energy:             21.3370828

- temperature:       260.0000000
  free_energy:         0.0211844
  entropy:            84.4175256
  heat_capacity:      63.6094041
  energy:             21.9697410

- temperature:       270.0000000
  free_energy:        -0.8351105
  entropy:            86.8302630
  heat_capacity:      64.2445808
  energy:             22.6090605

- temperature:       280.0000000
  free_energy:        -1.7152019
  entropy:            89.1773122
  heat_capacity:      64.8235773
  energy:             23.2544455

- temperature:       290.0000000
  free_energy:        -2.6184469
  entropy:            91.4614213
  heat_capacity:      65.3524952
  energy:             23.9053652

- temperature:       300.0000000
  free_energy:        -3.5442295
  entropy:            93.6852527
  heat_capacity:      65.8366812
  energy:             24.5613463

- temperature:       310.0000000
  free_energy:        -4.4919596
  entropy:            95.8513712
  heat_capacity:      66.2808275
  energy:             25.2219655

- temperature:       320.0000000
  free_energy:        -5.4610727
  entropy:            97.9622373
  heat_capacity:      66.6890576
  energy:             25.8868432

- temperature:       330.0000000
  free_energy:        -6.4510281
  entropy:           100.0202033
  heat_capacity:      67.0650020
  energy:             26.5556390

- temperature:       340.0000000
  free_energy:        -7.4613079
  entropy:           102.0275127
  heat_capacity:      67.4118634
  energy:             27.2280464

- temperature:       350.0000000
  free_energy:        -8.4914166
  entropy:           103.9863012
  heat_capacity:      67.7324718
  energy:             27.9037888

- temperature:       360.0000000
  free_energy:        -9.5408790
  entropy:           105.8985991
  heat_capacity:      68.0293337
  energy:             28.5826167

- temperature:       370.0000000
  free_energy:       -10.6092400
  entropy:           107.7663346
  heat_capacity:      68.3046733
  energy:             29.2643038

- temperature:       380.0000000
  free_energy:       -11.6960633
  entropy:           109.5913376
  heat_capacity:      68.5604682
  energy:             29.9486450

- temperature:       390.0000000
  free_energy:       -12.8009301
  entropy:           111.3753437
  heat_capacity:      68.7984805
  energy:             30.6354539

- temperature:       400.0000000
  free_energy:       -13.9234390
  entropy:           113.1199990
  heat_capacity:      69.0202834
  energy:             31.3245606

- temperature:       410.0000000
  free_energy:       -15.0632042
  entropy:           114.8268644
  heat_capacity:      69.2272840
  energy:             32.0158102

- temperature:       420.0000000
  free_energy:       -16.2198552
  entropy:           116.4974200
  heat_capacity:      69.4207440
  energy:             32.7090612

- temperature:       430.0000000
  free_energy:       -17.3930362
  entropy:           118.1330697
  heat_capacity:      69.6017960
  energy:             33.4041838

- temperature:       440.0000000
  free_energy:       -18.5824047
  entropy:           119.7351452
  heat_capacity:      69.7714593
  energy:             34.1010591

- temperature:       450.0000000
  free_energy:       -19.7876314
  entropy:           121.3049100
  heat_capacity:      69.9306527
  energy:             34.7995781

- temperature:       460.0000000
  free_energy:       -21.0083992
  entropy:           122.8435637
  heat_capacity:      70.0802059
  energy:             35.4996401

- temperature:       470.0000000
  free_energy:       -22.2444028
  entropy:           124.3522454
  heat_capacity:      70.2208693
  energy:             36.2011526

- temperature:       480.0000000
  free_energy:       -23.4953478
  entropy:           125.8320374
  heat_capacity:      70.3533230
  energy:             36.9040301

- temperature:       490.0000000
  free_energy:       -24.7609507
  entropy:           127.2839682
  heat_capacity:      70.4781846
  energy:             37.6081937

- temperature:       500.0000000
  free_energy:       -26.0409376
  entropy:           128.7090159
  heat_capacity:      70.5960151
  energy:             38.3135704

- temperature:       510.0000000
  free_energy:       -27.3350445
  entropy:           130.1081114
  heat_capacity:      70.7073257
  energy:             39.0200923

- temperature:       520.0000000
  free_energy:       -28.6430163
  entropy:           131.4821404
  heat_capacity:      70.8125826
  energy:             39.7276967

- temperature:       530.0000000
  free_energy:       -29.9646066
  entropy:           132.8319467
  heat_capacity:      70.9122114
  energy:             40.4363252

- temperature:       540.0000000
  free_energy:       -31.2995772
  entropy:           134.1583345
  heat_capacity:      71.0066018
  energy:             41.1459235

- temperature:       550.0000000
  free_energy:       -32.6476978
  entropy:           135.4620704
  heat_capacity:      71.0961103
  energy:             41.8564410

- temperature:       560.0000000
  free_energy:       -34.0087455
  entropy:           136.7438857
  heat_capacity:      71.1810643
  energy:             42.5678305

- temperature:       570.0000000
  free_energy:       -35.3825047
  entropy:           138.0044786
  heat_capacity:      71.2617644
  energy:             43.2800481

- temperature:       580.0000000
  free_energy:       -36.7687666
  entropy:           139.2445157
  heat_capacity:      71.3384870
  energy:             43.9930525

- temperature:       590.0000000
  free_energy:       -38.1673286
  entropy:           140.4646340
  heat_capacity:      71.4114867
  energy:             44.7068054

- temperature:       600.0000000
  free_energy:       -39.5779949
  entropy:           141.6654425
  heat_capacity:      71.4809982
  energy:             45.4212706

- temperature:       610.0000000
  free_energy:       -41.0005751
  entropy:           142.8475238
  heat_capacity:      71.5472384
  energy:             46.1364145

- temperature:       620.0000000
  free_energy:       -42.4348848
  entropy:           144.0114354
  heat_capacity:      71.6104074
  energy:             46.8522052

- temperature:       630.0000000
  free_energy:       -43.8807450
  entropy:           145.1577111
  heat_capacity:      71.6706907
  energy:             47.5686130

- temperature:       640.0000000
  free_energy:       -45.3379819
  entropy:           146.2868623
  heat_capacity:      71.7282598
  energy:             48.2856099

- temperature:       650.0000000
  free_energy:       -46.8064268
  entropy:           147.3993792
  heat_capacity:      71.7832741
  energy:             49.0031697

- temperature:       660.0000000
  free_energy:       -48.2859156
  entropy:           148.4957319
  heat_capacity:      71.8358813
  energy:             49.7212674

- temperature:       670.0000000
  free_energy:       -49.7762891
  entropy:           149.5763713
  heat_capacity:      71.8862188
  energy:             50.4398797

- temperature:       680.0000000
  free_energy:       -51.2773921
  entropy:           150.6417305
  heat_capacity:      71.9344143
  energy:             51.1589846

- temperature:       690.0000000
  free_energy:       -52.7890741
  entropy:           151.6922252
  heat_capacity:      71.9805868
  energy:             51.8785613

- temperature:       700.0000000
  free_energy:       -54.3111884
  entropy:           152.7282549
  heat_capacity:      72.0248472
  energy:             52.5985900

- temperature:       710.0000000
  free_energy:       -55.8435923
  entropy:           153.7502035
  heat_capacity:      72.0672989
  energy:             53.3190522

- temperature:       720.0000000
  free_energy:       -57.3861468
  entropy:           154.7584403
  heat_capacity:      72.1080386
  energy:             54.0399303

- temperature:       730.0000000
  free_energy:       -58.9387166
  entropy:           155.7533207
  heat_capacity:      72.1471564
  energy:             54.7612076

- temperature:       740.0000000
  free_energy:       -60.5011698
  entropy:           156.7351866
  heat_capacity:      72.1847368
  energy:             55.4828683

- temperature:       750.0000000
  free_energy:       -62.0733780
  entropy:           157.7043673
  heat_capacity:      72.2208589
  energy:             56.2048974

- temperature:       760.0000000
  free_energy:       -63.6552159
  entropy:           158.6611800
  heat_capacity:      72.2555967
  energy:             56.9272808

- temperature:       770.0000000
  free_energy:       -65.2465614
  entropy:           159.6059304
  heat_capacity:      72.2890196
  energy:             57.6500050

- temperature:       780.0000000
  free_energy:       -66.8472953
  entropy:           160.5389133
  heat_capacity:      72.3211929
  energy:             58.3730571

- temperature:       790.0000000
  free_energy:       -68.4573014
  entropy:           161.4604130
  heat_capacity:      72.3521776
  energy:             59.0964249

- temperature:       800.0000000
  free_energy:       -70.0764662
  entropy:           162.3707038
  heat_capacity:      72.3820314
  energy:             59.8200968

- temperature:       810.0000000
  free_energy:       -71.7046790
  entropy:           163.2700505
  heat_capacity:      72.4108084
  energy:             60.5440619

- temperature:       820.0000000
  free_energy:       -73.3418316
  entropy:           164.1587088
  heat_capacity:      72.4385594
  energy:             61.2683096

- temperature:       830.0000000
  free_energy:       -74.9878184
  entropy:           165.0369256
  heat_capacity:      72.4653324
  energy:             61.9928298

- temperature:       840.0000000
  free_energy:       -76.6425361
  entropy:           165.9049396
  heat_capacity:      72.4911726
  energy:             62.7176131

- temperature:       850.0000000
  free_energy:       -78.3058839
  entropy:           166.7629815
  heat_capacity:      72.5161227
  energy:             63.4426503

- temperature:       860.0000000
  free_energy:       -79.9777632
  entropy:           167.6112744
  heat_capacity:      72.5402228
  energy:             64.1679328

- temperature:       870.0000000
  free_energy:       -81.6580776
  entropy:           168.4500342
  heat_capacity:      72.5635111
  energy:             64.8934521

- temperature:       880.0000000
  free_energy:       -83.3467328
  entropy:           169.2794696
  heat_capacity:      72.5860234
  energy:             65.6192004

- temperature:       890.0000000
  free_energy:       -85.0436366
  entropy:           170.0997828
  heat_capacity:      72.6077936
  energy:             66.3451701

- temperature:       900.0000000
  free_energy:       -86.7486987
  entropy:           170.9111696
  heat_capacity:      72.6288539
  energy:             67.0713539

- temperature:       910.0000000
  free_energy:       -88.4618309
  entropy:           171.7138195
  heat_capacity:      72.6492346
  energy:             67.7977449

- temperature:       920.0000000
  free_energy:       -90.1829466
  entropy:           172.5079164
  heat_capacity:      72.6689647
  energy:             68.5243364

- temperature:       930.0000000
  free_energy:       -91.9119613
  entropy:           173.2936381
  heat_capacity:      72.6880714
  energy:             69.2511221

- temperature:       940.0000000
  free_energy:       -93.6487921
  entropy:           174.0711573
  heat_capacity:      72.7065805
  energy:             69.9780959

- temperature:       950.0000000
  free_energy:       -95.3933577
  entropy:           174.8406416
  heat_capacity:      72.7245167
  energy:             70.7052518

- temperature:       960.0000000
  free_energy:       -97.1455786
  entropy:           175.6022531
  heat_capacity:      72.7419033
  energy:             71.4325844

- temperature:       970.0000000
  free_energy:       -98.9053770
  entropy:           176.3561496
  heat_capacity:      72.7587624
  energy:             72.1600881

- temperature:       980.0000000
  free_energy:      -100.6726764
  entropy:           177.1024840
  heat_capacity:      72.7751151
  energy:             72.8877579

- temperature:       990.0000000
  free_energy:      -102.4474020
  entropy:           177.8414048
  heat_capacity:      72.7909814
  energy:             73.6155888

- temperature:      1000.0000000
  free_energy:      -104.2294803
  entropy:           178.5730563
  heat_capacity:      72.8063803
  energy:             74.3435760
