phonopy:
  version: "2.37.1"
  frequency_unit_conversion_factor: 15.633302
  symmetry_tolerance: 1.00000e-05

space_group:
  type: "Pm-3m"
  number: 221
  Hall_symbol: "-P 4 2 3"

primitive_matrix:
- [  1.000000000000000,  0.000000000000000,  0.000000000000000 ]
- [  0.000000000000000,  1.000000000000000,  0.000000000000000 ]
- [  0.000000000000000,  0.000000000000000,  1.000000000000000 ]

supercell_matrix:
- [   3,   0,   0 ]
- [   0,   3,   0 ]
- [   0,   0,   3 ]

primitive_cell:
  lattice:
  - [     4.093719982575785,     0.000000000000000,     0.000000000000000 ] # a
  - [     0.000000018535267,     4.093719994562727,     0.000000000000000 ] # b
  - [    -0.000000004324371,    -0.000000023962263,     4.093719980366084 ] # c
  points:
  - symbol: Li # 1
    coordinates: [  0.999999999982361,  0.999999999801407,  0.999999999790374 ]
    mass: 6.940000
  - symbol: Ga # 2
    coordinates: [  0.500000000090867,  0.000000000332035,  0.500000000164652 ]
    mass: 69.723000
  - symbol: Ga # 3
    coordinates: [  0.000000000108512,  0.500000000008479,  0.499999999916361 ]
    mass: 69.723000
  - symbol: Ga # 4
    coordinates: [  0.499999999829182,  0.499999999854587,  0.000000000150137 ]
    mass: 69.723000
  reciprocal_lattice: # without 2pi
  - [     0.244276600318617,    -0.000000001106019,     0.000000000258040 ] # a*
  - [     0.000000000000000,     0.244276599603343,     0.000000001429854 ] # b*
  - [     0.000000000000000,     0.000000000000000,     0.244276600450472 ] # c*

unit_cell:
  lattice:
  - [     4.093719982575785,     0.000000000000000,     0.000000000000000 ] # a
  - [     0.000000018535267,     4.093719994562727,     0.000000000000000 ] # b
  - [    -0.000000004324371,    -0.000000023962263,     4.093719980366084 ] # c
  points:
  - symbol: Li # 1
    coordinates: [  0.999999999982361,  0.999999999801407,  0.999999999790374 ]
    mass: 6.940000
    reduced_to: 1
  - symbol: Ga # 2
    coordinates: [  0.500000000090867,  0.000000000332035,  0.500000000164652 ]
    mass: 69.723000
    reduced_to: 2
  - symbol: Ga # 3
    coordinates: [  0.000000000108512,  0.500000000008479,  0.499999999916361 ]
    mass: 69.723000
    reduced_to: 3
  - symbol: Ga # 4
    coordinates: [  0.499999999829182,  0.499999999854587,  0.000000000150137 ]
    mass: 69.723000
    reduced_to: 4

supercell:
  lattice:
  - [    12.281159947727357,     0.000000000000000,     0.000000000000000 ] # a
  - [     0.000000055605801,    12.281159983688182,     0.000000000000000 ] # b
  - [    -0.000000012973114,    -0.000000071886789,    12.281159941098251 ] # c
  points:
  - symbol: Li # 1
    coordinates: [  0.333333333327454,  0.333333333267136,  0.333333333263458 ]
    mass: 6.940000
    reduced_to: 1
  - symbol: Li # 2
    coordinates: [  0.666666666660787,  0.333333333267136,  0.333333333263458 ]
    mass: 6.940000
    reduced_to: 1
  - symbol: Li # 3
    coordinates: [  0.999999999994120,  0.333333333267136,  0.333333333263458 ]
    mass: 6.940000
    reduced_to: 1
  - symbol: Li # 4
    coordinates: [  0.333333333327454,  0.666666666600469,  0.333333333263458 ]
    mass: 6.940000
    reduced_to: 1
  - symbol: Li # 5
    coordinates: [  0.666666666660787,  0.666666666600469,  0.333333333263458 ]
    mass: 6.940000
    reduced_to: 1
  - symbol: Li # 6
    coordinates: [  0.999999999994120,  0.666666666600469,  0.333333333263458 ]
    mass: 6.940000
    reduced_to: 1
  - symbol: Li # 7
    coordinates: [  0.333333333327454,  0.999999999933802,  0.333333333263458 ]
    mass: 6.940000
    reduced_to: 1
  - symbol: Li # 8
    coordinates: [  0.666666666660787,  0.999999999933802,  0.333333333263458 ]
    mass: 6.940000
    reduced_to: 1
  - symbol: Li # 9
    coordinates: [  0.999999999994120,  0.999999999933802,  0.333333333263458 ]
    mass: 6.940000
    reduced_to: 1
  - symbol: Li # 10
    coordinates: [  0.333333333327454,  0.333333333267136,  0.666666666596791 ]
    mass: 6.940000
    reduced_to: 1
  - symbol: Li # 11
    coordinates: [  0.666666666660787,  0.333333333267136,  0.666666666596791 ]
    mass: 6.940000
    reduced_to: 1
  - symbol: Li # 12
    coordinates: [  0.999999999994120,  0.333333333267136,  0.666666666596791 ]
    mass: 6.940000
    reduced_to: 1
  - symbol: Li # 13
    coordinates: [  0.333333333327454,  0.666666666600469,  0.666666666596791 ]
    mass: 6.940000
    reduced_to: 1
  - symbol: Li # 14
    coordinates: [  0.666666666660787,  0.666666666600469,  0.666666666596791 ]
    mass: 6.940000
    reduced_to: 1
  - symbol: Li # 15
    coordinates: [  0.999999999994120,  0.666666666600469,  0.666666666596791 ]
    mass: 6.940000
    reduced_to: 1
  - symbol: Li # 16
    coordinates: [  0.333333333327454,  0.999999999933802,  0.666666666596791 ]
    mass: 6.940000
    reduced_to: 1
  - symbol: Li # 17
    coordinates: [  0.666666666660787,  0.999999999933802,  0.666666666596791 ]
    mass: 6.940000
    reduced_to: 1
  - symbol: Li # 18
    coordinates: [  0.999999999994120,  0.999999999933802,  0.666666666596791 ]
    mass: 6.940000
    reduced_to: 1
  - symbol: Li # 19
    coordinates: [  0.333333333327454,  0.333333333267136,  0.999999999930125 ]
    mass: 6.940000
    reduced_to: 1
  - symbol: Li # 20
    coordinates: [  0.666666666660787,  0.333333333267136,  0.999999999930125 ]
    mass: 6.940000
    reduced_to: 1
  - symbol: Li # 21
    coordinates: [  0.999999999994120,  0.333333333267136,  0.999999999930125 ]
    mass: 6.940000
    reduced_to: 1
  - symbol: Li # 22
    coordinates: [  0.333333333327454,  0.666666666600469,  0.999999999930125 ]
    mass: 6.940000
    reduced_to: 1
  - symbol: Li # 23
    coordinates: [  0.666666666660787,  0.666666666600469,  0.999999999930125 ]
    mass: 6.940000
    reduced_to: 1
  - symbol: Li # 24
    coordinates: [  0.999999999994120,  0.666666666600469,  0.999999999930125 ]
    mass: 6.940000
    reduced_to: 1
  - symbol: Li # 25
    coordinates: [  0.333333333327454,  0.999999999933802,  0.999999999930125 ]
    mass: 6.940000
    reduced_to: 1
  - symbol: Li # 26
    coordinates: [  0.666666666660787,  0.999999999933802,  0.999999999930125 ]
    mass: 6.940000
    reduced_to: 1
  - symbol: Li # 27
    coordinates: [  0.999999999994120,  0.999999999933802,  0.999999999930125 ]
    mass: 6.940000
    reduced_to: 1
  - symbol: Ga # 28
    coordinates: [  0.166666666696956,  0.000000000110678,  0.166666666721551 ]
    mass: 69.723000
    reduced_to: 28
  - symbol: Ga # 29
    coordinates: [  0.500000000030289,  0.000000000110678,  0.166666666721551 ]
    mass: 69.723000
    reduced_to: 28
  - symbol: Ga # 30
    coordinates: [  0.833333333363622,  0.000000000110678,  0.166666666721551 ]
    mass: 69.723000
    reduced_to: 28
  - symbol: Ga # 31
    coordinates: [  0.166666666696956,  0.333333333444012,  0.166666666721551 ]
    mass: 69.723000
    reduced_to: 28
  - symbol: Ga # 32
    coordinates: [  0.500000000030289,  0.333333333444012,  0.166666666721551 ]
    mass: 69.723000
    reduced_to: 28
  - symbol: Ga # 33
    coordinates: [  0.833333333363622,  0.333333333444012,  0.166666666721551 ]
    mass: 69.723000
    reduced_to: 28
  - symbol: Ga # 34
    coordinates: [  0.166666666696956,  0.666666666777345,  0.166666666721551 ]
    mass: 69.723000
    reduced_to: 28
  - symbol: Ga # 35
    coordinates: [  0.500000000030289,  0.666666666777345,  0.166666666721551 ]
    mass: 69.723000
    reduced_to: 28
  - symbol: Ga # 36
    coordinates: [  0.833333333363622,  0.666666666777345,  0.166666666721551 ]
    mass: 69.723000
    reduced_to: 28
  - symbol: Ga # 37
    coordinates: [  0.166666666696956,  0.000000000110678,  0.500000000054884 ]
    mass: 69.723000
    reduced_to: 28
  - symbol: Ga # 38
    coordinates: [  0.500000000030289,  0.000000000110678,  0.500000000054884 ]
    mass: 69.723000
    reduced_to: 28
  - symbol: Ga # 39
    coordinates: [  0.833333333363622,  0.000000000110678,  0.500000000054884 ]
    mass: 69.723000
    reduced_to: 28
  - symbol: Ga # 40
    coordinates: [  0.166666666696956,  0.333333333444012,  0.500000000054884 ]
    mass: 69.723000
    reduced_to: 28
  - symbol: Ga # 41
    coordinates: [  0.500000000030289,  0.333333333444012,  0.500000000054884 ]
    mass: 69.723000
    reduced_to: 28
  - symbol: Ga # 42
    coordinates: [  0.833333333363622,  0.333333333444012,  0.500000000054884 ]
    mass: 69.723000
    reduced_to: 28
  - symbol: Ga # 43
    coordinates: [  0.166666666696956,  0.666666666777345,  0.500000000054884 ]
    mass: 69.723000
    reduced_to: 28
  - symbol: Ga # 44
    coordinates: [  0.500000000030289,  0.666666666777345,  0.500000000054884 ]
    mass: 69.723000
    reduced_to: 28
  - symbol: Ga # 45
    coordinates: [  0.833333333363622,  0.666666666777345,  0.500000000054884 ]
    mass: 69.723000
    reduced_to: 28
  - symbol: Ga # 46
    coordinates: [  0.166666666696956,  0.000000000110678,  0.833333333388217 ]
    mass: 69.723000
    reduced_to: 28
  - symbol: Ga # 47
    coordinates: [  0.500000000030289,  0.000000000110678,  0.833333333388217 ]
    mass: 69.723000
    reduced_to: 28
  - symbol: Ga # 48
    coordinates: [  0.833333333363622,  0.000000000110678,  0.833333333388217 ]
    mass: 69.723000
    reduced_to: 28
  - symbol: Ga # 49
    coordinates: [  0.166666666696956,  0.333333333444012,  0.833333333388217 ]
    mass: 69.723000
    reduced_to: 28
  - symbol: Ga # 50
    coordinates: [  0.500000000030289,  0.333333333444012,  0.833333333388217 ]
    mass: 69.723000
    reduced_to: 28
  - symbol: Ga # 51
    coordinates: [  0.833333333363622,  0.333333333444012,  0.833333333388217 ]
    mass: 69.723000
    reduced_to: 28
  - symbol: Ga # 52
    coordinates: [  0.166666666696956,  0.666666666777345,  0.833333333388217 ]
    mass: 69.723000
    reduced_to: 28
  - symbol: Ga # 53
    coordinates: [  0.500000000030289,  0.666666666777345,  0.833333333388217 ]
    mass: 69.723000
    reduced_to: 28
  - symbol: Ga # 54
    coordinates: [  0.833333333363622,  0.666666666777345,  0.833333333388217 ]
    mass: 69.723000
    reduced_to: 28
  - symbol: Ga # 55
    coordinates: [  0.000000000036171,  0.166666666669493,  0.166666666638787 ]
    mass: 69.723000
    reduced_to: 55
  - symbol: Ga # 56
    coordinates: [  0.333333333369504,  0.166666666669493,  0.166666666638787 ]
    mass: 69.723000
    reduced_to: 55
  - symbol: Ga # 57
    coordinates: [  0.666666666702837,  0.166666666669493,  0.166666666638787 ]
    mass: 69.723000
    reduced_to: 55
  - symbol: Ga # 58
    coordinates: [  0.000000000036171,  0.500000000002826,  0.166666666638787 ]
    mass: 69.723000
    reduced_to: 55
  - symbol: Ga # 59
    coordinates: [  0.333333333369504,  0.500000000002826,  0.166666666638787 ]
    mass: 69.723000
    reduced_to: 55
  - symbol: Ga # 60
    coordinates: [  0.666666666702837,  0.500000000002826,  0.166666666638787 ]
    mass: 69.723000
    reduced_to: 55
  - symbol: Ga # 61
    coordinates: [  0.000000000036171,  0.833333333336159,  0.166666666638787 ]
    mass: 69.723000
    reduced_to: 55
  - symbol: Ga # 62
    coordinates: [  0.333333333369504,  0.833333333336159,  0.166666666638787 ]
    mass: 69.723000
    reduced_to: 55
  - symbol: Ga # 63
    coordinates: [  0.666666666702837,  0.833333333336159,  0.166666666638787 ]
    mass: 69.723000
    reduced_to: 55
  - symbol: Ga # 64
    coordinates: [  0.000000000036171,  0.166666666669493,  0.499999999972120 ]
    mass: 69.723000
    reduced_to: 55
  - symbol: Ga # 65
    coordinates: [  0.333333333369504,  0.166666666669493,  0.499999999972120 ]
    mass: 69.723000
    reduced_to: 55
  - symbol: Ga # 66
    coordinates: [  0.666666666702837,  0.166666666669493,  0.499999999972120 ]
    mass: 69.723000
    reduced_to: 55
  - symbol: Ga # 67
    coordinates: [  0.000000000036171,  0.500000000002826,  0.499999999972120 ]
    mass: 69.723000
    reduced_to: 55
  - symbol: Ga # 68
    coordinates: [  0.333333333369504,  0.500000000002826,  0.499999999972120 ]
    mass: 69.723000
    reduced_to: 55
  - symbol: Ga # 69
    coordinates: [  0.666666666702837,  0.500000000002826,  0.499999999972120 ]
    mass: 69.723000
    reduced_to: 55
  - symbol: Ga # 70
    coordinates: [  0.000000000036171,  0.833333333336159,  0.499999999972120 ]
    mass: 69.723000
    reduced_to: 55
  - symbol: Ga # 71
    coordinates: [  0.333333333369504,  0.833333333336159,  0.499999999972120 ]
    mass: 69.723000
    reduced_to: 55
  - symbol: Ga # 72
    coordinates: [  0.666666666702837,  0.833333333336159,  0.499999999972120 ]
    mass: 69.723000
    reduced_to: 55
  - symbol: Ga # 73
    coordinates: [  0.000000000036171,  0.166666666669493,  0.833333333305454 ]
    mass: 69.723000
    reduced_to: 55
  - symbol: Ga # 74
    coordinates: [  0.333333333369504,  0.166666666669493,  0.833333333305454 ]
    mass: 69.723000
    reduced_to: 55
  - symbol: Ga # 75
    coordinates: [  0.666666666702837,  0.166666666669493,  0.833333333305454 ]
    mass: 69.723000
    reduced_to: 55
  - symbol: Ga # 76
    coordinates: [  0.000000000036171,  0.500000000002826,  0.833333333305454 ]
    mass: 69.723000
    reduced_to: 55
  - symbol: Ga # 77
    coordinates: [  0.333333333369504,  0.500000000002826,  0.833333333305454 ]
    mass: 69.723000
    reduced_to: 55
  - symbol: Ga # 78
    coordinates: [  0.666666666702837,  0.500000000002826,  0.833333333305454 ]
    mass: 69.723000
    reduced_to: 55
  - symbol: Ga # 79
    coordinates: [  0.000000000036171,  0.833333333336159,  0.833333333305454 ]
    mass: 69.723000
    reduced_to: 55
  - symbol: Ga # 80
    coordinates: [  0.333333333369504,  0.833333333336159,  0.833333333305454 ]
    mass: 69.723000
    reduced_to: 55
  - symbol: Ga # 81
    coordinates: [  0.666666666702837,  0.833333333336159,  0.833333333305454 ]
    mass: 69.723000
    reduced_to: 55
  - symbol: Ga # 82
    coordinates: [  0.166666666609727,  0.166666666618196,  0.000000000050046 ]
    mass: 69.723000
    reduced_to: 82
  - symbol: Ga # 83
    coordinates: [  0.499999999943061,  0.166666666618196,  0.000000000050046 ]
    mass: 69.723000
    reduced_to: 82
  - symbol: Ga # 84
    coordinates: [  0.833333333276394,  0.166666666618196,  0.000000000050046 ]
    mass: 69.723000
    reduced_to: 82
  - symbol: Ga # 85
    coordinates: [  0.166666666609727,  0.499999999951529,  0.000000000050046 ]
    mass: 69.723000
    reduced_to: 82
  - symbol: Ga # 86
    coordinates: [  0.499999999943061,  0.499999999951529,  0.000000000050046 ]
    mass: 69.723000
    reduced_to: 82
  - symbol: Ga # 87
    coordinates: [  0.833333333276394,  0.499999999951529,  0.000000000050046 ]
    mass: 69.723000
    reduced_to: 82
  - symbol: Ga # 88
    coordinates: [  0.166666666609727,  0.833333333284862,  0.000000000050046 ]
    mass: 69.723000
    reduced_to: 82
  - symbol: Ga # 89
    coordinates: [  0.499999999943061,  0.833333333284862,  0.000000000050046 ]
    mass: 69.723000
    reduced_to: 82
  - symbol: Ga # 90
    coordinates: [  0.833333333276394,  0.833333333284862,  0.000000000050046 ]
    mass: 69.723000
    reduced_to: 82
  - symbol: Ga # 91
    coordinates: [  0.166666666609727,  0.166666666618196,  0.333333333383379 ]
    mass: 69.723000
    reduced_to: 82
  - symbol: Ga # 92
    coordinates: [  0.499999999943061,  0.166666666618196,  0.333333333383379 ]
    mass: 69.723000
    reduced_to: 82
  - symbol: Ga # 93
    coordinates: [  0.833333333276394,  0.166666666618196,  0.333333333383379 ]
    mass: 69.723000
    reduced_to: 82
  - symbol: Ga # 94
    coordinates: [  0.166666666609727,  0.499999999951529,  0.333333333383379 ]
    mass: 69.723000
    reduced_to: 82
  - symbol: Ga # 95
    coordinates: [  0.499999999943061,  0.499999999951529,  0.333333333383379 ]
    mass: 69.723000
    reduced_to: 82
  - symbol: Ga # 96
    coordinates: [  0.833333333276394,  0.499999999951529,  0.333333333383379 ]
    mass: 69.723000
    reduced_to: 82
  - symbol: Ga # 97
    coordinates: [  0.166666666609727,  0.833333333284862,  0.333333333383379 ]
    mass: 69.723000
    reduced_to: 82
  - symbol: Ga # 98
    coordinates: [  0.499999999943061,  0.833333333284862,  0.333333333383379 ]
    mass: 69.723000
    reduced_to: 82
  - symbol: Ga # 99
    coordinates: [  0.833333333276394,  0.833333333284862,  0.333333333383379 ]
    mass: 69.723000
    reduced_to: 82
  - symbol: Ga # 100
    coordinates: [  0.166666666609727,  0.166666666618196,  0.666666666716712 ]
    mass: 69.723000
    reduced_to: 82
  - symbol: Ga # 101
    coordinates: [  0.499999999943061,  0.166666666618196,  0.666666666716712 ]
    mass: 69.723000
    reduced_to: 82
  - symbol: Ga # 102
    coordinates: [  0.833333333276394,  0.166666666618196,  0.666666666716712 ]
    mass: 69.723000
    reduced_to: 82
  - symbol: Ga # 103
    coordinates: [  0.166666666609727,  0.499999999951529,  0.666666666716712 ]
    mass: 69.723000
    reduced_to: 82
  - symbol: Ga # 104
    coordinates: [  0.499999999943061,  0.499999999951529,  0.666666666716712 ]
    mass: 69.723000
    reduced_to: 82
  - symbol: Ga # 105
    coordinates: [  0.833333333276394,  0.499999999951529,  0.666666666716712 ]
    mass: 69.723000
    reduced_to: 82
  - symbol: Ga # 106
    coordinates: [  0.166666666609727,  0.833333333284862,  0.666666666716712 ]
    mass: 69.723000
    reduced_to: 82
  - symbol: Ga # 107
    coordinates: [  0.499999999943061,  0.833333333284862,  0.666666666716712 ]
    mass: 69.723000
    reduced_to: 82
  - symbol: Ga # 108
    coordinates: [  0.833333333276394,  0.833333333284862,  0.666666666716712 ]
    mass: 69.723000
    reduced_to: 82

displacements:
- atom:    1
  displacement:
    [   0.0100000000000000,  0.0000000000000000,  0.0000000000000000 ]
  forces:
  - [  -0.0171931572258472,  0.0000002915039659,  0.0000003031454980 ]
  - [   0.0007929252460599,  0.0000002421438694,  0.0000003234017640 ]
  - [   0.0007658288814127,  0.0000000307336450, -0.0000000663567334 ]
  - [  -0.0001227352768183,  0.0000000293366611,  0.0000003748573363 ]
  - [  -0.0003853412345052, -0.0004843659698963,  0.0000007452908903 ]
  - [  -0.0003850115463138,  0.0004803487099707,  0.0000002828892320 ]
  - [  -0.0001232745125890, -0.0000017455313355, -0.0000001308508217 ]
  - [  -0.0003856727853417,  0.0004831298720092,  0.0000003401655704 ]
  - [  -0.0003849910572171, -0.0004815454594791,  0.0000000703148544 ]
  - [  -0.0001227739267051, -0.0000001094304025, -0.0000004193279892 ]
  - [  -0.0003853845410049,  0.0000003241002560, -0.0004847359377891 ]
  - [  -0.0003852024674416, -0.0000001913867891,  0.0004797796718776 ]
  - [   0.0000993763096631, -0.0000002849847078,  0.0000005366746336 ]
  - [  -0.0000297380611300, -0.0000675763003528, -0.0000667620915920 ]
  - [  -0.0000306735746562,  0.0000654999166727,  0.0000667627900839 ]
  - [   0.0000990880653262, -0.0000010485528037, -0.0000002202577889 ]
  - [  -0.0000300384126604,  0.0000660947989672, -0.0000672999303788 ]
  - [  -0.0000301911495626, -0.0000670976005495,  0.0000659623183310 ]
  - [  -0.0001231990754604,  0.0000000786967576, -0.0000016788262656 ]
  - [  -0.0003855414688587,  0.0000003110617399,  0.0004829267272726 ]
  - [  -0.0003848341293633, -0.0000000689178705, -0.0004813185660169 ]
  - [   0.0000990931876004, -0.0000002160668373, -0.0000010504193142 ]
  - [  -0.0000299792736769, -0.0000672042369843,  0.0000662948004901 ]
  - [  -0.0000302777625620,  0.0000659115612507, -0.0000672666355968 ]
  - [   0.0000987695530057, -0.0000011133961380, -0.0000011004751741 ]
  - [  -0.0000301254913211,  0.0000664722174406,  0.0000664143590257 ]
  - [  -0.0000300947576761, -0.0000670067965984, -0.0000667795538902 ]
  - [  -0.0001653903163970, -0.0002650818205439, -0.0000884332694113 ]
  - [  -0.0001624405849725,  0.0002666190266609,  0.0000905422493815 ]
  - [   0.0001044934615493, -0.0000002603156872, -0.0000000093132257 ]
  - [   0.0026336272712797, -0.0000007506459951,  0.0025582564994693 ]
  - [   0.0026894132606685,  0.0000000381842256, -0.0026181112043560 ]
  - [   0.0000426264014095, -0.0000002747401595, -0.0000007925555110 ]
  - [  -0.0001650685444474,  0.0002650441601872, -0.0000886288471520 ]
  - [  -0.0001633637584746, -0.0002670697867870,  0.0000902051106095 ]
  - [   0.0001049535349011, -0.0000002691522241, -0.0000000139698386 ]
  - [  -0.0001654305960983, -0.0002653764677234,  0.0000891261734068 ]
  - [  -0.0001627593301237,  0.0002662641054485, -0.0000899974256754 ]
  - [   0.0001041933428496, -0.0000008976539334, -0.0000008875504136 ]
  - [   0.0026336458977312,  0.0000002384185791, -0.0025582495145500 ]
  - [   0.0026890537701547,  0.0000006360933185,  0.0026177666150033 ]
  - [   0.0000421737786382,  0.0000004377216101, -0.0000008419156075 ]
  - [  -0.0001651719212532,  0.0002651661634445,  0.0000883960165083 ]
  - [  -0.0001633495558053, -0.0002666888758540, -0.0000908193178475 ]
  - [   0.0001045900862664,  0.0000001518055797, -0.0000014714896679 ]
  - [  -0.0000009371433407,  0.0000756866502343,  0.0000017643906176 ]
  - [  -0.0000019299332052, -0.0000772775820224,  0.0000013448297977 ]
  - [   0.0000023669563234, -0.0000017789839148,  0.0000001955777407 ]
  - [  -0.0000485405325890, -0.0000004870817065,  0.0000011511147022 ]
  - [  -0.0000488709192723, -0.0000001164153218,  0.0000006714835763 ]
  - [   0.0000954049173743,  0.0000000596046448, -0.0000003501772881 ]
  - [  -0.0000008253846318, -0.0000762958079576,  0.0000023539178073 ]
  - [  -0.0000023276079446,  0.0000758729875088,  0.0000018537975848 ]
  - [   0.0000023671891540,  0.0000004069879651,  0.0000007003545761 ]
  - [  -0.0002766815596260, -0.0001973120961338, -0.0001978510990739 ]
  - [   0.0003987122327089,  0.0000131905544549,  0.0000126995146275 ]
  - [  -0.0002748183906078,  0.0001969814766198,  0.0001964624971151 ]
  - [  -0.0002770991704892,  0.0001984017726500, -0.0001977221108973 ]
  - [   0.0003994628787041, -0.0000129667751025,  0.0000128336250782 ]
  - [  -0.0002747392281890, -0.0001967199787032,  0.0001967390999198 ]
  - [   0.0000005774727470,  0.0000022288877517,  0.0000230539590120 ]
  - [  -0.0000016670674086,  0.0000011199153960, -0.0000007366761565 ]
  - [   0.0000007394701242,  0.0000026521738619, -0.0000226870179176 ]
  - [  -0.0002771043218672, -0.0001978438813239,  0.0001981775276363 ]
  - [   0.0003994107246399,  0.0000127367675304, -0.0000130287371576 ]
  - [  -0.0002749357372522,  0.0001967912539840, -0.0001968308351934 ]
  - [  -0.0002776132314466,  0.0001979556982405,  0.0001980527304113 ]
  - [   0.0003999313339591, -0.0000136028684210, -0.0000136019662023 ]
  - [  -0.0002745604142547, -0.0001970072917175, -0.0001969812437892 ]
  - [   0.0000000056967338,  0.0000013806857169, -0.0000236406922340 ]
  - [  -0.0000013643875718,  0.0000003767199814, -0.0000008493661880 ]
  - [   0.0000008465722203,  0.0000016610138118,  0.0000216886401176 ]
  - [   0.0000007189785265,  0.0000227100681514,  0.0000017522834241 ]
  - [  -0.0000015879049897, -0.0000009054783732,  0.0000008689239621 ]
  - [   0.0000003892928362, -0.0000231543090194,  0.0000023730099201 ]
  - [  -0.0000000248670631, -0.0000220355013880,  0.0000010593794286 ]
  - [  -0.0000012069940567,  0.0000013702592696,  0.0000004833564162 ]
  - [   0.0000009099021554,  0.0000246219024120,  0.0000017932616174 ]
  - [  -0.0000007035172871, -0.0000000193249434,  0.0000004563480616 ]
  - [  -0.0000016223639250, -0.0000003119930625, -0.0000002821907401 ]
  - [   0.0000019250437617,  0.0000007927883416,  0.0000010225921869 ]
  - [  -0.0001653647050261, -0.0000886647030711, -0.0002651028335094 ]
  - [  -0.0001625306904316,  0.0000901727471501,  0.0002666874788702 ]
  - [   0.0001043947413564,  0.0000000477302819, -0.0000001222352921 ]
  - [  -0.0001653665676713,  0.0000887642963789, -0.0002654246054590 ]
  - [  -0.0001626443117857, -0.0000902833999135,  0.0002662423066795 ]
  - [   0.0001039654016495, -0.0000009474460967, -0.0000005355088319 ]
  - [  -0.0000010710209608,  0.0000016870908439,  0.0000755547080189 ]
  - [  -0.0000018449500203,  0.0000008956994861, -0.0000774888321757 ]
  - [   0.0000023236498237,  0.0000001643784344, -0.0000016284159301 ]
  - [   0.0026335008442402,  0.0025579838547856, -0.0000006556510925 ]
  - [   0.0026892712339759, -0.0026181479915977,  0.0000000195577741 ]
  - [   0.0000428329221904, -0.0000007278285921, -0.0000000800937414 ]
  - [   0.0026336251758039, -0.0025583219248801,  0.0000000419095159 ]
  - [   0.0026890072040260,  0.0026177323888987,  0.0000006109476089 ]
  - [   0.0000422461889684, -0.0000009897630662,  0.0000004284083843 ]
  - [  -0.0000483859330416,  0.0000009627547115, -0.0000000903382897 ]
  - [  -0.0000484408810735,  0.0000006423797458,  0.0000004405155778 ]
  - [   0.0000947718508542, -0.0000005131587386,  0.0000004572793841 ]
  - [  -0.0001650550402701, -0.0000885862391442,  0.0002650618553162 ]
  - [  -0.0001632599160075,  0.0000903862528503, -0.0002668686211109 ]
  - [   0.0001052082516253,  0.0000002584420145, -0.0000003743916750 ]
  - [  -0.0001653032377362,  0.0000881822197698,  0.0002650925889611 ]
  - [  -0.0001631807535887, -0.0000909895752557, -0.0002668444067240 ]
  - [   0.0001046708784997, -0.0000012256787159,  0.0000000754371285 ]
  - [  -0.0000010132789612,  0.0000022999010980, -0.0000758729875088 ]
  - [  -0.0000023506581783,  0.0000018351711333,  0.0000763861462474 ]
  - [   0.0000027939677238,  0.0000010554213077,  0.0000006761401892 ]
- atom:   28
  displacement:
    [   0.0070710678175209,  0.0070710678062100,  0.0000000000000000 ]
  forces:
  - [  -0.0003050081431866, -0.0003347010351717, -0.0002524540759623 ]
  - [   0.0000718105584383,  0.0000005555339158,  0.0000539598986506 ]
  - [   0.0000711618922651, -0.0000562751665711, -0.0001259525306523 ]
  - [   0.0000720196403563, -0.0000557010062039,  0.0001239165430889 ]
  - [   0.0000725951977074,  0.0000007143244147, -0.0000530515098944 ]
  - [  -0.0003044256009161, -0.0003346898593009,  0.0002508044708520 ]
  - [   0.0019049283582717,  0.0002784677781165,  0.0018573703709990 ]
  - [   0.0000289534218609, -0.0000021905871108,  0.0000003904569894 ]
  - [   0.0018584080971777,  0.0002844049595296, -0.0018026516772807 ]
  - [   0.0000529470853508,  0.0000161165371537, -0.0000010889489204 ]
  - [   0.0000012675300241,  0.0000009816139936, -0.0000007719499990 ]
  - [  -0.0000551687553525, -0.0000159437768161, -0.0000011029187590 ]
  - [  -0.0000539598986506, -0.0000161356292665,  0.0000000973232090 ]
  - [   0.0000013345852494,  0.0000004265457392,  0.0000003305030987 ]
  - [   0.0000522308982909,  0.0000164788216352,  0.0000004135072231 ]
  - [  -0.0000336617231369, -0.0000018861610442, -0.0000005960464478 ]
  - [   0.0000671898014843, -0.0000024816254154, -0.0000003399327397 ]
  - [  -0.0000338363461196, -0.0000021555460989, -0.0000003883615136 ]
  - [  -0.0003050025552511, -0.0003348286263645,  0.0002514567459002 ]
  - [   0.0000721141695976,  0.0000006924383342, -0.0000546120572835 ]
  - [   0.0000714766792953, -0.0000562183558941,  0.0001252368092537 ]
  - [   0.0000722496770322, -0.0000556092709303, -0.0001246437896043 ]
  - [   0.0000724960118532,  0.0000008665956557,  0.0000530922552571 ]
  - [  -0.0003042956814170, -0.0003348677419126, -0.0002512949286029 ]
  - [   0.0019049840047956,  0.0002787695266306, -0.0018581952899694 ]
  - [   0.0000290847383440, -0.0000019655562937, -0.0000006925565685 ]
  - [   0.0018586786463857,  0.0002845581620932,  0.0018020288553089 ]
  - [  -0.0143118286505342, -0.0147209633141756,  0.0000004207249731 ]
  - [   0.0004291073419154, -0.0000493971310789,  0.0000001853331923 ]
  - [   0.0004585250280797, -0.0000520399917150, -0.0000000577419996 ]
  - [   0.0000283308327198,  0.0003811037167907,  0.0000002719461918 ]
  - [   0.0000326416920871,  0.0000781016424298, -0.0000000060535967 ]
  - [   0.0000315899960697,  0.0000728657469153, -0.0000003902241588 ]
  - [   0.0000282581895590,  0.0003965571522713,  0.0000004740431905 ]
  - [   0.0000280498061329,  0.0000758841633797,  0.0000003566965461 ]
  - [   0.0000542302150279,  0.0000965455546975, -0.0000002011656761 ]
  - [  -0.0001975428313017, -0.0000505298812641, -0.0000019227154553 ]
  - [  -0.0003603084478527, -0.0000435687579738, -0.0003155823796988 ]
  - [  -0.0003610933199525, -0.0000447652746516,  0.0003169607371092 ]
  - [   0.0001583534758538,  0.0000784927979112,  0.0000027376227081 ]
  - [  -0.0000214695464820,  0.0000272579491138, -0.0000338358804584 ]
  - [  -0.0000276186037809,  0.0000208951532841,  0.0000388892367482 ]
  - [   0.0001557460054755,  0.0000833384692669, -0.0000105672515929 ]
  - [  -0.0000284428242594,  0.0000206502154469, -0.0000407998450100 ]
  - [  -0.0000190858263522,  0.0000281734392047,  0.0000315215438604 ]
  - [  -0.0001979721710086, -0.0000509483033966,  0.0000042067840695 ]
  - [  -0.0003612225409597, -0.0000442160962848,  0.0003168242983520 ]
  - [  -0.0003619380295277, -0.0000453024804301, -0.0003174319863319 ]
  - [   0.0001578796654940,  0.0000780187547207, -0.0000018267892301 ]
  - [  -0.0000225950498134,  0.0000266199931502,  0.0000341790728271 ]
  - [  -0.0000277434010059,  0.0000205030664802, -0.0000406289473176 ]
  - [   0.0001555040944368,  0.0000837994739413,  0.0000121220946312 ]
  - [  -0.0000288584269583,  0.0000205710530281,  0.0000418121926486 ]
  - [  -0.0000205368269235,  0.0000286633148789, -0.0000323653221130 ]
  - [  -0.0012340091634542,  0.0005279364995658,  0.0000001303851604 ]
  - [   0.0046740928664804,  0.0028786142356694, -0.0000003026798368 ]
  - [   0.0001792935654521, -0.0001576978247613,  0.0000003241002560 ]
  - [  -0.0001575308560859,  0.0001778011501301,  0.0000002542510629 ]
  - [  -0.0001598689705133,  0.0001784551714081, -0.0000000265426934 ]
  - [   0.0003171078860760,  0.0003165942907799,  0.0000004968605936 ]
  - [   0.0044057071208954,  0.0026382422074676,  0.0000000805594027 ]
  - [  -0.0012586014345288,  0.0005485713481903, -0.0000001955777407 ]
  - [   0.0001766839995980, -0.0001558850053698,  0.0000000577419996 ]