phonopy:
  version: "2.37.1"
  frequency_unit_conversion_factor: 15.633302
  symmetry_tolerance: 1.00000e-05

space_group:
  type: "P1"
  number: 1
  Hall_symbol: "P 1"

primitive_matrix:
- [ -1.000000000000000,  0.000000000000000, -0.000000000000000 ]
- [  0.000000000000000, -1.000000000000000,  0.000000000000000 ]
- [  0.000000000000000,  0.000000000000000,  1.000000000000000 ]

supercell_matrix:
- [   3,   0,   0 ]
- [   0,   2,   0 ]
- [   0,   0,   1 ]

primitive_cell:
  lattice:
  - [    -3.512786279631586,     0.000000000000000,     0.000000000000000 ] # a
  - [     1.755775111628484,    -5.746188579827771,     0.000000000000000 ] # b
  - [     0.000433506998865,     1.120670975337168,    15.281356119445329 ] # c
  points:
  - symbol: Sn # 1
    coordinates: [  0.423943330454392,  0.546917549168952,  0.267618089758783 ]
    mass: 118.710000
  - symbol: Sn # 2
    coordinates: [  0.696668730083301,  0.092923697160181,  0.177311296934408 ]
    mass: 118.710000
  - symbol: Sn # 3
    coordinates: [  0.333581407668131,  0.366959245360878,  0.631709481594612 ]
    mass: 118.710000
  - symbol: Sn # 4
    coordinates: [  0.151202342883304,  0.001331104912017,  0.359366883247094 ]
    mass: 118.710000
  - symbol: Sn # 5
    coordinates: [  0.788282304575272,  0.275816859277751,  0.813559867501823 ]
    mass: 118.710000
  - symbol: Sn # 6
    coordinates: [  0.242056345426855,  0.183991484670848,  0.995264763367528 ]
    mass: 118.710000
  - symbol: Sn # 7
    coordinates: [  0.878814250987603,  0.457000528812329,  0.449677077746725 ]
    mass: 118.710000
  - symbol: Sn # 8
    coordinates: [  0.515157570446341,  0.729829424165809,  0.904839323243076 ]
    mass: 118.710000
  - symbol: Sn # 9
    coordinates: [  0.969365579253475,  0.638305246550488,  0.086069001413103 ]
    mass: 118.710000
  - symbol: Sn # 10
    coordinates: [  0.061201119170160,  0.821185091365707,  0.723469675693937 ]
    mass: 118.710000
  - symbol: Sn # 11
    coordinates: [  0.606447593754334,  0.910933273519892,  0.541321310990394 ]
    mass: 118.710000
  reciprocal_lattice: # without 2pi
  - [    -0.284674307058862,    -0.086983581605499,     0.006387089128593 ] # a*
  - [    -0.000000000000000,    -0.174028399191516,     0.012762517562833 ] # b*
  - [    -0.000000000000000,    -0.000000000000000,     0.065439218364103 ] # c*

unit_cell:
  lattice:
  - [     3.512786279631585,     0.000000000000000,     0.000000000000000 ] # a
  - [    -1.755775111628483,     5.746188579827770,     0.000000000000000 ] # b
  - [     0.000433506998865,     1.120670975337168,    15.281356119445325 ] # c
  points:
  - symbol: Sn # 1
    coordinates: [  0.576056669545608,  0.453082450831048,  0.267618089758783 ]
    mass: 118.710000
    reduced_to: 1
  - symbol: Sn # 2
    coordinates: [  0.303331269916699,  0.907076302839819,  0.177311296934408 ]
    mass: 118.710000
    reduced_to: 2
  - symbol: Sn # 3
    coordinates: [  0.666418592331869,  0.633040754639122,  0.631709481594612 ]
    mass: 118.710000
    reduced_to: 3
  - symbol: Sn # 4
    coordinates: [  0.848797657116696,  0.998668895087984,  0.359366883247094 ]
    mass: 118.710000
    reduced_to: 4
  - symbol: Sn # 5
    coordinates: [  0.211717695424728,  0.724183140722249,  0.813559867501823 ]
    mass: 118.710000
    reduced_to: 5
  - symbol: Sn # 6
    coordinates: [  0.757943654573145,  0.816008515329152,  0.995264763367528 ]
    mass: 118.710000
    reduced_to: 6
  - symbol: Sn # 7
    coordinates: [  0.121185749012397,  0.542999471187671,  0.449677077746725 ]
    mass: 118.710000
    reduced_to: 7
  - symbol: Sn # 8
    coordinates: [  0.484842429553659,  0.270170575834191,  0.904839323243076 ]
    mass: 118.710000
    reduced_to: 8
  - symbol: Sn # 9
    coordinates: [  0.030634420746525,  0.361694753449512,  0.086069001413103 ]
    mass: 118.710000
    reduced_to: 9
  - symbol: Sn # 10
    coordinates: [  0.938798880829840,  0.178814908634293,  0.723469675693937 ]
    mass: 118.710000
    reduced_to: 10
  - symbol: Sn # 11
    coordinates: [  0.393552406245666,  0.089066726480108,  0.541321310990394 ]
    mass: 118.710000
    reduced_to: 11

supercell:
  lattice:
  - [    10.538358838894755,     0.000000000000000,     0.000000000000000 ] # a
  - [    -3.511550223256966,    11.492377159655540,     0.000000000000000 ] # b
  - [     0.000433506998865,     1.120670975337168,    15.281356119445325 ] # c
  points:
  - symbol: Sn # 1
    coordinates: [  0.192018889848536,  0.226541225415524,  0.267618089758783 ]
    mass: 118.710000
    reduced_to: 1
  - symbol: Sn # 2
    coordinates: [  0.525352223181869,  0.226541225415524,  0.267618089758783 ]
    mass: 118.710000
    reduced_to: 1
  - symbol: Sn # 3
    coordinates: [  0.858685556515203,  0.226541225415524,  0.267618089758783 ]
    mass: 118.710000
    reduced_to: 1
  - symbol: Sn # 4
    coordinates: [  0.192018889848536,  0.726541225415524,  0.267618089758783 ]
    mass: 118.710000
    reduced_to: 1
  - symbol: Sn # 5
    coordinates: [  0.525352223181869,  0.726541225415524,  0.267618089758783 ]
    mass: 118.710000
    reduced_to: 1
  - symbol: Sn # 6
    coordinates: [  0.858685556515203,  0.726541225415524,  0.267618089758783 ]
    mass: 118.710000
    reduced_to: 1
  - symbol: Sn # 7
    coordinates: [  0.101110423305566,  0.453538151419910,  0.177311296934408 ]
    mass: 118.710000
    reduced_to: 7
  - symbol: Sn # 8
    coordinates: [  0.434443756638900,  0.453538151419910,  0.177311296934408 ]
    mass: 118.710000
    reduced_to: 7
  - symbol: Sn # 9
    coordinates: [  0.767777089972233,  0.453538151419910,  0.177311296934408 ]
    mass: 118.710000
    reduced_to: 7
  - symbol: Sn # 10
    coordinates: [  0.101110423305566,  0.953538151419909,  0.177311296934408 ]
    mass: 118.710000
    reduced_to: 7
  - symbol: Sn # 11
    coordinates: [  0.434443756638900,  0.953538151419909,  0.177311296934408 ]
    mass: 118.710000
    reduced_to: 7
  - symbol: Sn # 12
    coordinates: [  0.767777089972233,  0.953538151419909,  0.177311296934408 ]
    mass: 118.710000
    reduced_to: 7
  - symbol: Sn # 13
    coordinates: [  0.222139530777290,  0.316520377319561,  0.631709481594612 ]
    mass: 118.710000
    reduced_to: 13
  - symbol: Sn # 14
    coordinates: [  0.555472864110623,  0.316520377319561,  0.631709481594612 ]
    mass: 118.710000
    reduced_to: 13
  - symbol: Sn # 15
    coordinates: [  0.888806197443956,  0.316520377319561,  0.631709481594612 ]
    mass: 118.710000
    reduced_to: 13
  - symbol: Sn # 16
    coordinates: [  0.222139530777290,  0.816520377319561,  0.631709481594612 ]
    mass: 118.710000
    reduced_to: 13
  - symbol: Sn # 17
    coordinates: [  0.555472864110623,  0.816520377319561,  0.631709481594612 ]
    mass: 118.710000
    reduced_to: 13
  - symbol: Sn # 18
    coordinates: [  0.888806197443956,  0.816520377319561,  0.631709481594612 ]
    mass: 118.710000
    reduced_to: 13
  - symbol: Sn # 19
    coordinates: [  0.282932552372232,  0.499334447543992,  0.359366883247094 ]
    mass: 118.710000
    reduced_to: 19
  - symbol: Sn # 20
    coordinates: [  0.616265885705565,  0.499334447543992,  0.359366883247094 ]
    mass: 118.710000
    reduced_to: 19
  - symbol: Sn # 21
    coordinates: [  0.949599219038899,  0.499334447543992,  0.359366883247094 ]
    mass: 118.710000
    reduced_to: 19
  - symbol: Sn # 22
    coordinates: [  0.282932552372232,  0.999334447543992,  0.359366883247094 ]
    mass: 118.710000
    reduced_to: 19
  - symbol: Sn # 23
    coordinates: [  0.616265885705565,  0.999334447543992,  0.359366883247094 ]
    mass: 118.710000
    reduced_to: 19
  - symbol: Sn # 24
    coordinates: [  0.949599219038899,  0.999334447543992,  0.359366883247094 ]
    mass: 118.710000
    reduced_to: 19
  - symbol: Sn # 25
    coordinates: [  0.070572565141576,  0.362091570361125,  0.813559867501823 ]
    mass: 118.710000
    reduced_to: 25
  - symbol: Sn # 26
    coordinates: [  0.403905898474909,  0.362091570361125,  0.813559867501823 ]
    mass: 118.710000
    reduced_to: 25
  - symbol: Sn # 27
    coordinates: [  0.737239231808243,  0.362091570361125,  0.813559867501823 ]
    mass: 118.710000
    reduced_to: 25
  - symbol: Sn # 28
    coordinates: [  0.070572565141576,  0.862091570361125,  0.813559867501823 ]
    mass: 118.710000
    reduced_to: 25
  - symbol: Sn # 29
    coordinates: [  0.403905898474909,  0.862091570361125,  0.813559867501823 ]
    mass: 118.710000
    reduced_to: 25
  - symbol: Sn # 30
    coordinates: [  0.737239231808243,  0.862091570361125,  0.813559867501823 ]
    mass: 118.710000
    reduced_to: 25
  - symbol: Sn # 31
    coordinates: [  0.252647884857715,  0.408004257664576,  0.995264763367528 ]
    mass: 118.710000
    reduced_to: 31
  - symbol: Sn # 32
    coordinates: [  0.585981218191048,  0.408004257664576,  0.995264763367528 ]
    mass: 118.710000
    reduced_to: 31
  - symbol: Sn # 33
    coordinates: [  0.919314551524382,  0.408004257664576,  0.995264763367528 ]
    mass: 118.710000
    reduced_to: 31
  - symbol: Sn # 34
    coordinates: [  0.252647884857715,  0.908004257664576,  0.995264763367528 ]
    mass: 118.710000
    reduced_to: 31
  - symbol: Sn # 35
    coordinates: [  0.585981218191048,  0.908004257664576,  0.995264763367528 ]
    mass: 118.710000
    reduced_to: 31
  - symbol: Sn # 36
    coordinates: [  0.919314551524382,  0.908004257664576,  0.995264763367528 ]
    mass: 118.710000
    reduced_to: 31
  - symbol: Sn # 37
    coordinates: [  0.040395249670799,  0.271499735593836,  0.449677077746725 ]
    mass: 118.710000
    reduced_to: 37
  - symbol: Sn # 38
    coordinates: [  0.373728583004132,  0.271499735593836,  0.449677077746725 ]
    mass: 118.710000
    reduced_to: 37
  - symbol: Sn # 39
    coordinates: [  0.707061916337466,  0.271499735593836,  0.449677077746725 ]
    mass: 118.710000
    reduced_to: 37
  - symbol: Sn # 40
    coordinates: [  0.040395249670799,  0.771499735593836,  0.449677077746725 ]
    mass: 118.710000
    reduced_to: 37
  - symbol: Sn # 41
    coordinates: [  0.373728583004132,  0.771499735593836,  0.449677077746725 ]
    mass: 118.710000
    reduced_to: 37
  - symbol: Sn # 42
    coordinates: [  0.707061916337466,  0.771499735593836,  0.449677077746725 ]
    mass: 118.710000
    reduced_to: 37
  - symbol: Sn # 43
    coordinates: [  0.161614143184553,  0.135085287917096,  0.904839323243076 ]
    mass: 118.710000
    reduced_to: 43
  - symbol: Sn # 44
    coordinates: [  0.494947476517886,  0.135085287917096,  0.904839323243076 ]
    mass: 118.710000
    reduced_to: 43
  - symbol: Sn # 45
    coordinates: [  0.828280809851220,  0.135085287917096,  0.904839323243076 ]
    mass: 118.710000
    reduced_to: 43
  - symbol: Sn # 46
    coordinates: [  0.161614143184553,  0.635085287917096,  0.904839323243076 ]
    mass: 118.710000
    reduced_to: 43
  - symbol: Sn # 47
    coordinates: [  0.494947476517886,  0.635085287917096,  0.904839323243076 ]
    mass: 118.710000
    reduced_to: 43
  - symbol: Sn # 48
    coordinates: [  0.828280809851220,  0.635085287917096,  0.904839323243076 ]
    mass: 118.710000
    reduced_to: 43
  - symbol: Sn # 49
    coordinates: [  0.010211473582175,  0.180847376724756,  0.086069001413103 ]
    mass: 118.710000
    reduced_to: 49
  - symbol: Sn # 50
    coordinates: [  0.343544806915508,  0.180847376724756,  0.086069001413103 ]
    mass: 118.710000
    reduced_to: 49
  - symbol: Sn # 51
    coordinates: [  0.676878140248842,  0.180847376724756,  0.086069001413103 ]
    mass: 118.710000
    reduced_to: 49
  - symbol: Sn # 52
    coordinates: [  0.010211473582175,  0.680847376724756,  0.086069001413103 ]
    mass: 118.710000
    reduced_to: 49
  - symbol: Sn # 53
    coordinates: [  0.343544806915508,  0.680847376724756,  0.086069001413103 ]
    mass: 118.710000
    reduced_to: 49
  - symbol: Sn # 54
    coordinates: [  0.676878140248842,  0.680847376724756,  0.086069001413103 ]
    mass: 118.710000
    reduced_to: 49
  - symbol: Sn # 55
    coordinates: [  0.312932960276613,  0.089407454317146,  0.723469675693937 ]
    mass: 118.710000
    reduced_to: 55
  - symbol: Sn # 56
    coordinates: [  0.646266293609947,  0.089407454317146,  0.723469675693937 ]
    mass: 118.710000
    reduced_to: 55
  - symbol: Sn # 57
    coordinates: [  0.979599626943280,  0.089407454317146,  0.723469675693937 ]
    mass: 118.710000
    reduced_to: 55
  - symbol: Sn # 58
    coordinates: [  0.312932960276613,  0.589407454317146,  0.723469675693937 ]
    mass: 118.710000
    reduced_to: 55
  - symbol: Sn # 59
    coordinates: [  0.646266293609947,  0.589407454317146,  0.723469675693937 ]
    mass: 118.710000
    reduced_to: 55
  - symbol: Sn # 60
    coordinates: [  0.979599626943280,  0.589407454317146,  0.723469675693937 ]
    mass: 118.710000
    reduced_to: 55
  - symbol: Sn # 61
    coordinates: [  0.131184135415222,  0.044533363240054,  0.541321310990394 ]
    mass: 118.710000
    reduced_to: 61
  - symbol: Sn # 62
    coordinates: [  0.464517468748555,  0.044533363240054,  0.541321310990394 ]
    mass: 118.710000
    reduced_to: 61
  - symbol: Sn # 63
    coordinates: [  0.797850802081889,  0.044533363240054,  0.541321310990394 ]
    mass: 118.710000
    reduced_to: 61
  - symbol: Sn # 64
    coordinates: [  0.131184135415222,  0.544533363240054,  0.541321310990394 ]
    mass: 118.710000
    reduced_to: 61
  - symbol: Sn # 65
    coordinates: [  0.464517468748555,  0.544533363240054,  0.541321310990394 ]
    mass: 118.710000
    reduced_to: 61
  - symbol: Sn # 66
    coordinates: [  0.797850802081889,  0.544533363240054,  0.541321310990394 ]
    mass: 118.710000
    reduced_to: 61

displacements:
- atom:    1
  displacement:
    [   0.0100000000000000,  0.0000000000000000,  0.0000000000000000 ]
  forces:
  - [  -0.0090900138020515, -0.0038406387902796,  0.0075551895424724 ]
  - [   0.0018989436794072, -0.0038504302501678,  0.0075527792796493 ]
  - [   0.0018123146146536, -0.0038546824362129,  0.0075606931932271 ]
  - [   0.0004296977713238, -0.0041236262768507,  0.0073800468817353 ]
  - [   0.0003256059717387, -0.0037180664949119,  0.0076454319059849 ]
  - [   0.0003255933406763, -0.0037196651101112,  0.0076447622850537 ]
  - [   0.0002988158375956,  0.0017750943079591,  0.0007192597258836 ]
  - [   0.0003203844535165,  0.0054276110604405, -0.0007094563916326 ]
  - [   0.0004967667628080,  0.0035768328234553,  0.0000060126185417 ]
  - [  -0.0003179577179253,  0.0035962830297649,  0.0000119408214232 ]
  - [  -0.0004618073289748,  0.0034714867360890, -0.0000360335325240 ]
  - [  -0.0003953943960369,  0.0037440878804773,  0.0000880484731169 ]
  - [  -0.0011018998920918,  0.0005697812885046, -0.0016087386757135 ]
  - [  -0.0008225007914007,  0.0006016895640641, -0.0014733762945980 ]
  - [  -0.0008236371213570,  0.0005367402918637, -0.0017420449294150 ]
  - [  -0.0008921895059757,  0.0005830689333379, -0.0016110140131786 ]
  - [  -0.0009137282613665,  0.0005630158120766, -0.0016121000517160 ]
  - [  -0.0008843963732943,  0.0005629051593132, -0.0016057762550190 ]
  - [   0.0000032597745303,  0.0002848804870155, -0.0019098306074739 ]
  - [  -0.0000887804199010,  0.0004256958491169, -0.0018352124607190 ]
  - [   0.0000025256304070,  0.0000248557189479, -0.0020168428309262 ]
  - [   0.0005867759464309, -0.0014920814428478, -0.0012052190722898 ]
  - [   0.0008041210239753,  0.0002618519356474, -0.0019123267848045 ]
  - [   0.0005817429628223,  0.0019956200849265, -0.0025899168103933 ]
  - [   0.0002839986700565, -0.0013680958654732, -0.0013127857819200 ]
  - [   0.0002836035564542, -0.0013620434328914, -0.0013079387135804 ]
  - [   0.0002619573497213, -0.0013637791853398, -0.0013104298850521 ]
  - [   0.0002816845953930, -0.0013653235509992, -0.0013134134933352 ]
  - [   0.0002719929034356, -0.0013540924992412, -0.0013010348193347 ]
  - [   0.0002752743312158, -0.0013754284009337, -0.0013187455479056 ]
  - [  -0.0006719907978550, -0.0009424893651158,  0.0041439603082836 ]
  - [  -0.0002890262694564, -0.0008215522393584,  0.0038858246989548 ]
  - [  -0.0002895866055042, -0.0010499518830329,  0.0044051404111087 ]
  - [  -0.0004530910518952, -0.0010907588293776,  0.0041051488369703 ]
  - [  -0.0005571733345278, -0.0009421037975699,  0.0041471542790532 ]
  - [  -0.0004525880794972, -0.0007798034930602,  0.0041814395226538 ]
  - [   0.0000857727573020, -0.0002725749218371, -0.0000502091425005 ]
  - [   0.0000992635905277,  0.0011464070994407,  0.0034257208462805 ]
  - [   0.0003170412383042,  0.0004325959016569,  0.0016719384584576 ]
  - [  -0.0006151105044410,  0.0004816873115487,  0.0016910335980356 ]
  - [  -0.0003221193910576,  0.0003093419072684,  0.0017396637704223 ]
  - [  -0.0003371083003003,  0.0005006381543353,  0.0015804319409654 ]
  - [  -0.0003648195415735,  0.0014625107869506, -0.0028486158698797 ]
  - [  -0.0000786941091064,  0.0014279277529567, -0.0029904111288488 ]
  - [  -0.0000789533369243,  0.0014949275646359, -0.0027099349536002 ]
  - [  -0.0001510058355052,  0.0014763493090868, -0.0028500664047897 ]
  - [  -0.0001420002663508,  0.0014535961672664, -0.0028453951235861 ]
  - [  -0.0001709282223601,  0.0014549354091287, -0.0028506820090115 ]
  - [   0.0003802004794125, -0.0005382514209487,  0.0072497194632888 ]
  - [   0.0003899838775396, -0.0020060704555362,  0.0036971820518374 ]
  - [   0.0005946969613433, -0.0012648547999561,  0.0054908804595470 ]
  - [  -0.0000466225865239, -0.0013898701872677,  0.0055656991899014 ]
  - [  -0.0003445325128268, -0.0012153239222243,  0.0055140629410744 ]
  - [  -0.0000599324121140, -0.0011897541116923,  0.0053977547213435 ]
  - [   0.0004154073540121,  0.0024063396267593, -0.0105127692222595 ]
  - [   0.0003945201169699,  0.0024082041345537, -0.0105080585926771 ]
  - [   0.0004140349337831,  0.0024105408228934, -0.0105051398277283 ]
  - [   0.0004130033485126,  0.0024089268408716, -0.0105109773576260 ]
  - [   0.0004070046998095,  0.0023977011442184, -0.0105150323361158 ]
  - [   0.0004039049672429,  0.0024199129547924, -0.0104984566569328 ]
  - [   0.0010031828423962, -0.0013044364750385, -0.0006909176590852 ]
  - [   0.0013891357230023, -0.0014132475480437, -0.0004262987931725 ]
  - [   0.0013903954531997, -0.0011839114595205, -0.0009476908599027 ]
  - [   0.0012271229643375, -0.0014514685608447, -0.0007273865048774 ]
  - [   0.0012265765108168, -0.0011450350284576, -0.0006512277177535 ]
  - [   0.0011212916579098, -0.0013046445092186, -0.0006853968370706 ]
- atom:    1
  displacement:
    [  -0.0100000000000000,  0.0000000000000000,  0.0000000000000000 ]
  forces:
  - [   0.0098070073872805, -0.0038727908395231,  0.0075635081157088 ]
  - [  -0.0010951467556879, -0.0038579287938774,  0.0075620207935572 ]
  - [  -0.0011819626670331, -0.0038533112965524,  0.0075506996363401 ]
  - [   0.0002853292389773, -0.0035838023759425,  0.0077340034767985 ]
  - [   0.0003902157768607, -0.0039908941835165,  0.0074682175181806 ]
  - [   0.0003898544237018, -0.0039864587597549,  0.0074681015685201 ]
  - [  -0.0007844552164897,  0.0054299440234900, -0.0007178075029515 ]
  - [  -0.0007755650440231,  0.0017770370468497,  0.0007118261419237 ]
  - [  -0.0009660841897130,  0.0035898811183870,  0.0000134224537760 ]
  - [  -0.0001528883585706,  0.0035663568414748,  0.0000113957066787 ]
  - [  -0.0000938199227676,  0.0037692668847740,  0.0000911799870664 ]
  - [   0.0000105718136183,  0.0034962429199368, -0.0000308396993205 ]
  - [  -0.0006914040422998,  0.0005692793056369, -0.0016097845509648 ]
  - [  -0.0009687413694337,  0.0005369188147597, -0.0017422707751393 ]
  - [  -0.0009684249525890,  0.0006020287983119, -0.0014712722040713 ]
  - [  -0.0008998814737424,  0.0005555220413953, -0.0016084309900180 ]
  - [  -0.0008804632816464,  0.0005766390240751, -0.0016078127082437 ]
  - [  -0.0009102992480621,  0.0005770007264800, -0.0016129242721945 ]
  - [   0.0001588236191310,  0.0002536517567933, -0.0019098094198853 ]
  - [   0.0001642441493459,  0.0000368168111891, -0.0020191562362015 ]
  - [   0.0002451243926771,  0.0004362097242847, -0.0018366836011410 ]
  - [  -0.0004098609788343,  0.0019926703535020, -0.0025941615458578 ]
  - [  -0.0006412329967134,  0.0002740505151451, -0.0019044131040573 ]
  - [  -0.0004332850512583, -0.0014955148799345, -0.0012107703369111 ]
  - [   0.0002691682893783, -0.0013619719538838, -0.0013085306854919 ]
  - [   0.0002695936709642, -0.0013677740935236, -0.0013124011456966 ]
  - [   0.0002904190041590, -0.0013641746481881, -0.0013102235971019 ]
  - [   0.0002716353628784, -0.0013654489303008, -0.0013080514036119 ]
  - [   0.0002794723259285, -0.0013759853318334, -0.0013199537061155 ]
  - [   0.0002778103225864, -0.0013533761957660, -0.0013048655819148 ]
  - [  -0.0003049415536225, -0.0009336080402136,  0.0041482499800622 ]
  - [  -0.0006888916832395, -0.0010547540150583,  0.0044038002379239 ]
  - [  -0.0006883421447128, -0.0008257890585810,  0.0038833646103740 ]
  - [  -0.0005245204083622, -0.0007847488159314,  0.0041843731887639 ]
  - [  -0.0004212980857119, -0.0009328122250736,  0.0041416459716856 ]
  - [  -0.0005255817668512, -0.0010947654955089,  0.0041074655018747 ]
  - [  -0.0009108697995543,  0.0011493733618408,  0.0034327940084040 ]
  - [  -0.0008978608530015, -0.0002695952716749, -0.0000450753213954 ]
  - [  -0.0011302651837468,  0.0004304344474804,  0.0016722606960684 ]
  - [  -0.0001946750999196,  0.0003806508611888,  0.0016483303625137 ]
  - [  -0.0004878063919023,  0.0005510705523193,  0.0016007805243134 ]
  - [  -0.0004749663348775,  0.0003599988413043,  0.0017616149270907 ]
  - [   0.0000544942449778,  0.0014620012370870, -0.0028493469581008 ]
  - [  -0.0002304654917680,  0.0014959196560085, -0.0027110278606415 ]
  - [  -0.0002331393770874,  0.0014271102845669, -0.0029900269582868 ]
  - [  -0.0001581301039550,  0.0014480499085039, -0.0028476715087891 ]
  - [  -0.0001676413521636,  0.0014686543727294, -0.0028523402288556 ]
  - [  -0.0001379651948810,  0.0014680649619550, -0.0028463469352573 ]
  - [  -0.0006604301743209, -0.0020063351839781,  0.0036923992447555 ]
  - [  -0.0006422847509384, -0.0005389659199864,  0.0072439108043909 ]
  - [  -0.0008599497377872, -0.0012672077864408,  0.0054900939576328 ]
  - [  -0.0002190840896219, -0.0011383870150894,  0.0054198075085878 ]
  - [   0.0000797809334472, -0.0013161511160433,  0.0054712882265449 ]
  - [  -0.0002037869999185, -0.0013390539679676,  0.0055855135433376 ]
  - [   0.0004015429294668,  0.0024099319707602, -0.0105051035061479 ]
  - [   0.0004217880778015,  0.0024079019203782, -0.0105082169175148 ]
  - [   0.0004008777905256,  0.0024073864333332, -0.0105129098519683 ]
  - [   0.0004023391229566,  0.0024091699160635, -0.0105061735957861 ]
  - [   0.0004101085651200,  0.0024196684826165, -0.0105007598176599 ]
  - [   0.0004118321812712,  0.0023976662196219, -0.0105176391080022 ]
  - [   0.0013765610055998, -0.0012956039281562, -0.0006876926054247 ]
  - [   0.0009905050974339, -0.0011881883256137, -0.0009489284129813 ]
  - [   0.0009908357169479, -0.0014169577043504, -0.0004294063546695 ]
  - [   0.0011541367275640, -0.0011489614844322, -0.0006493304972537 ]
  - [   0.0011535413796082, -0.0014555990928784, -0.0007239551632665 ]
  - [   0.0012588007375598, -0.0012956352438778, -0.0006899596191943 ]
- atom:    1
  displacement:
    [  -0.0029221781526022,  0.0095635179115456,  0.0000000000000000 ]
  forces:
  - [   0.0031346385367215, -0.0133943594992161,  0.0091918725520372 ]
  - [  -0.0000761442061048, -0.0039529060013592,  0.0076194917783141 ]
  - [  -0.0000788496618043, -0.0039535108953714,  0.0076148235239089 ]
  - [   0.0000783330760896, -0.0028853565454483,  0.0075717223808169 ]
  - [   0.0004954349715263, -0.0035318895243108,  0.0075147049501538 ]
  - [   0.0004966399865225, -0.0035320795141160,  0.0075170826166868 ]
  - [  -0.0021781860850751,  0.0057496717199683, -0.0014096861705184 ]
  - [   0.0013681536074728,  0.0046828654594719, -0.0009609377011657 ]
  - [  -0.0004550679586828,  0.0035658082924783,  0.0000586542300880 ]
  - [  -0.0001978408399737,  0.0045238928869367,  0.0005490302573889 ]
  - [  -0.0003825624298770,  0.0034704636782408,  0.0001106588606490 ]
  - [  -0.0000426727201557,  0.0033689467236400,  0.0000460395531263 ]
  - [  -0.0008366382098757,  0.0006344583816826, -0.0014854578766972 ]
  - [  -0.0008882685797289,  0.0005826689884998, -0.0015993355773389 ]
  - [  -0.0009467315394431,  0.0006008194759488, -0.0015192271675915 ]
  - [  -0.0008836842025630,  0.0005514980293810, -0.0016165811102837 ]
  - [  -0.0008980606799014,  0.0005496727535501, -0.0016158240614459 ]
  - [  -0.0009085086639971,  0.0005818711942993, -0.0015910335350782 ]
  - [   0.0001187828893308,  0.0012166490778327, -0.0013616124633700 ]
  - [   0.0002891275507864,  0.0000717720831744, -0.0018674433231354 ]
  - [  -0.0000227135824389,  0.0001174147473648, -0.0018246034160256 ]
  - [  -0.0016899921465665,  0.0022210311144590, -0.0032168743200600 ]
  - [  -0.0001345144701190,  0.0002534473314881, -0.0018620095215738 ]
  - [   0.0015792206395417,  0.0012730937451124, -0.0028232862241566 ]
  - [   0.0002719840267673, -0.0013616106007248, -0.0013084539677948 ]
  - [   0.0002772828447632, -0.0013660676777363, -0.0013119734358042 ]
  - [   0.0002805702970363, -0.0013639094540849, -0.0013075965689495 ]
  - [   0.0002750599524006, -0.0013763833558187, -0.0013328129425645 ]
  - [   0.0002873614139389, -0.0013742016162723, -0.0013185515999794 ]
  - [   0.0002663937921170, -0.0013686316087842, -0.0013183756964281 ]
  - [  -0.0004388099769130, -0.0009410523343831,  0.0037285084836185 ]
  - [  -0.0004360933962744, -0.0010802203323692,  0.0040343659929931 ]
  - [  -0.0006542149931192, -0.0010324902832508,  0.0038737333379686 ]
  - [  -0.0006446477491409, -0.0007574884220958,  0.0044251484796405 ]
  - [  -0.0004736019182019, -0.0009770930046216,  0.0041005108505487 ]
  - [  -0.0003504830528982, -0.0008310704724863,  0.0043935445137322 ]
  - [  -0.0012398364488035,  0.0003496263234410,  0.0027901288121939 ]
  - [   0.0001289933861699, -0.0000619761267444,  0.0017617992125452 ]
  - [  -0.0006173115689307,  0.0005219269660302,  0.0016486153472215 ]
  - [  -0.0002958104596473,  0.0008040326065384,  0.0014297766610980 ]
  - [  -0.0005432348698378,  0.0007395829888992,  0.0016171000897884 ]
  - [  -0.0003584607911762,  0.0005263105267659,  0.0016037758905441 ]
  - [  -0.0000938540324569,  0.0015289698494598, -0.0027212593704462 ]
  - [  -0.0002096845710184,  0.0014957480598241, -0.0027571022510529 ]
  - [  -0.0001451880671084,  0.0014761678176001, -0.0028361999429762 ]
  - [  -0.0001420465414412,  0.0014448929578066, -0.0028570566792041 ]
  - [  -0.0001654997467995,  0.0014742797939107, -0.0028309889603406 ]
  - [  -0.0001560923410580,  0.0014404223766178, -0.0028548114933074 ]
  - [   0.0004107572021894, -0.0017690209206194,  0.0055873310193419 ]
  - [  -0.0009727333672345, -0.0013417686568573,  0.0066082584671676 ]
  - [  -0.0003437611740083, -0.0011728743556887,  0.0054730256088078 ]
  - [  -0.0002795197651722, -0.0009463214082643,  0.0054316539317369 ]
  - [  -0.0000217418419197, -0.0008938894607127,  0.0052499799057841 ]
  - [  -0.0000819003907964, -0.0011658163275570,  0.0054222689941525 ]
  - [   0.0004044996749144,  0.0024126244243234, -0.0105058457702398 ]
  - [   0.0004122673999518,  0.0024089200887829, -0.0105044087395072 ]
  - [   0.0004071570001543,  0.0024092565290630, -0.0105103012174368 ]
  - [   0.0004060718638357,  0.0023979304824024, -0.0105305695906281 ]
  - [   0.0003986502706539,  0.0024050602223724, -0.0105143133550882 ]
  - [   0.0004195277579129,  0.0024004611186683, -0.0105164647102356 ]
  - [   0.0012406797613949, -0.0013267634203658, -0.0010490074055269 ]
  - [   0.0010248613543808, -0.0013922776561230, -0.0009570766706020 ]
  - [   0.0012429340276867, -0.0014402033993974, -0.0007982857059687 ]
  - [   0.0010344756301492, -0.0011233575642109, -0.0004081227234565 ]
  - [   0.0013293031370267, -0.0011979585979134, -0.0004381208855193 ]
  - [   0.0012058052234352, -0.0013397042639554, -0.0007319879950956 ]
- atom:    1
  displacement:
    [   0.0029221781526022, -0.0095635179115456,  0.0000000000000000 ]
  forces:
  - [  -0.0024165133945644,  0.0056808339431882,  0.0059258029796183 ]
  - [   0.0007998273358680, -0.0037534185685217,  0.0074956528842449 ]
  - [   0.0007885718951002, -0.0037566835526377,  0.0074963569641113 ]
  - [   0.0006369352340698, -0.0048224418424070,  0.0075424499809742 ]
  - [   0.0002213257685071, -0.0041748853400350,  0.0075975116342306 ]
  - [   0.0002170720836148, -0.0041767107322812,  0.0075967512093484 ]
  - [   0.0016282460419461,  0.0015083588659763,  0.0013682571006939 ]
  - [  -0.0017969363834709,  0.0025111595168710,  0.0009580054320395 ]
  - [  -0.0000155887100846,  0.0035955999046564, -0.0000359492842108 ]
  - [  -0.0002750185667537,  0.0025786091573536, -0.0005545144667849 ]
  - [  -0.0002053211210296,  0.0038006198592484, -0.0000429652209277 ]
  - [  -0.0003974220308010,  0.0038204155862331, -0.0000107310916064 ]
  - [  -0.0009570608381182,  0.0005041986005381, -0.0017347196117043 ]
  - [  -0.0009044128237292,  0.0005553192459047, -0.0016192498151213 ]
  - [  -0.0008448519511148,  0.0005374364554882, -0.0016957484185696 ]
  - [  -0.0009087125072256,  0.0005868770531379, -0.0016025891527534 ]
  - [  -0.0008956301026046,  0.0005898599629290, -0.0016039713518694 ]
  - [  -0.0008860636735335,  0.0005577926640399, -0.0016275832895190 ]
  - [   0.0000455198460259, -0.0006189824780449, -0.0024295470211655 ]
  - [  -0.0001574488414917,  0.0004415762086865, -0.0019646866712719 ]
  - [   0.0003021604497917,  0.0003134679282084, -0.0020418658386916 ]
  - [   0.0019275506492704, -0.0017699790187180, -0.0005416022613645 ]
  - [   0.0002988928754348,  0.0002872893819585, -0.0019574975594878 ]
  - [  -0.0014556422829628, -0.0007625949801877, -0.0009727072902024 ]
  - [   0.0002814600011334, -0.0013689008774236, -0.0013130642473698 ]
  - [   0.0002760705829132, -0.0013638958334923, -0.0013090753927827 ]