12
Lattice="4.1745597849730665 0.0015155120443954293 -0.00047225639568106436 -0.0005235441795085752 6.958323981744814 -0.0110885793193462 0.0010975113231654866 0.0025228475091284585 8.41721751227229" Properties=species:S:1:pos:R:3:forces:R:3 structure_index=0 total_energy=-38.04100036621094 stress="-0.008298209868371487 0.0007048661354929209 0.00022377092682290822 0.0007048300467431545 -0.002421996323391795 -0.00014756724704056978 0.00022373170941136777 -0.00014762934006284922 0.0001552640605950728" pbc="T T T"
Li       0.10565975       6.96418210       4.49242613       0.00036995       0.01220416      -0.02275728
Li       0.10577430       0.02011274       0.37605372       0.00012576       0.00712615       0.02307508
Ga       2.19334148       1.86471350       4.45673893      -0.00019340       0.01369689      -0.02013623
Ga       2.19420798       0.05157217       2.43949814      -0.00048096      -0.01838210       0.00052741
Ga       0.10576469       4.98269840       2.43158141       0.00058161      -0.04349173       0.00002801
Ga       0.10633003       2.27489867       2.43808210      -0.00028199      -0.02119124       0.00094771
Ga       0.10768090       5.14669045       6.64006003      -0.00168031      -0.00068175      -0.00113889
Ga       2.19305447       1.87419273       0.42619616      -0.00026447       0.00922435       0.01642194
Ga       2.19324343       0.05858920       6.65015476       0.00099286       0.00393128       0.00013991
Sn       2.19388340       4.62989918       4.51017856      -0.00012529       0.02066248      -0.01764290
Sn       0.10547172       2.34434551       6.64656866       0.00043571      -0.00134703       0.00046551
Sn       2.19263946       4.63964700       0.35071106       0.00052055       0.01824855       0.02006974
7
Lattice="4.439023770243652 0.0003250839435349573 1.4696379741517565 1.972897215643153 3.9772293564915318 1.4703135596997574 0.01785561169186696 0.00889507474730586 7.38615557101624" Properties=species:S:1:pos:R:3:forces:R:3 structure_index=1 total_energy=-20.921567916870117 stress="-0.025520389899611473 -0.0021250371355563402 -0.023912079632282257 -0.002125043887645006 -0.011584917083382607 -0.01730414479970932 -0.02391238696873188 -0.017304008826613426 0.02121412381529808" pbc="T T T"
Li       4.24665317       2.35141696       2.84918677       0.00531328       0.00374691      -0.01839169
Li       1.48427031       0.63710839       3.75407183      -0.01326883      -0.00781549       0.04358943
Li       2.42293219       1.21941883       8.36116164      -0.00438100      -0.00333063       0.01502228
Li       5.18732645       2.93505772       7.44821634       0.01287529       0.00764608      -0.04097847
Ga       3.33445874       1.78549300       5.60577317       0.00050621       0.00006648      -0.00206811
Sn       0.59464808       0.08568026       6.44889417       0.00245760       0.00125817      -0.00855407
Sn       6.07737063       3.48653433       4.75345607      -0.00350256      -0.00157152       0.01138066
4
Lattice="3.322856744376495 0.0008077359809393604 0.0010397452747847003 -0.0020644062981722746 3.3247390183886116 0.00046548787070163075 -0.0008188301602185628 -0.0003548569559418344 6.501132304529896" Properties=species:S:1:pos:R:3:forces:R:3 structure_index=2 total_energy=-11.964444160461426 stress="-0.10847070068120956 -0.004023032262921333 0.002026638248935342 -0.004023061599582434 -0.10461027175188065 0.0008573118830099702 0.0020267812069505453 0.0008573586819693446 0.02822415716946125" pbc="T T T"
Li       2.80239513       2.59156438       5.08029760       0.00053758       0.00002603      -0.02027312
Li       2.80323586       2.59255131       1.53528737       0.00020592      -0.00065103       0.01865642
Ga       1.14303256       0.92926348       0.05550890      -0.00021498       0.00021617       0.00101842
Sn       1.14293871       0.92888296       3.30643347      -0.00052852       0.00040881       0.00059828
9
Lattice="4.303541843038635 0.001186926705590273 -0.0015796765308573337 -2.1533598911909886 4.541854669726672 -1.4891910840343632 0.005033880542299842 -0.08580599282769469 9.262039472824418" Properties=species:S:1:pos:R:3:forces:R:3 structure_index=3 total_energy=-27.970630645751953 stress="-0.004524464253336191 0.000501012138556689 0.0009961839532479644 0.000500980531796813 -0.019272789359092712 -0.013655008748173714 0.0009962011827155948 -0.013655008748173714 -0.002137061906978488" pbc="T T T"
Li       3.06887221       1.79574190       8.41831514       0.00057572       0.00109375      -0.02440620
Li       0.91499138       3.32572993       3.91886572       0.00005302       0.00606079       0.02435442
Li       0.91676665       0.26506934       6.93770821       0.00042896      -0.02611803      -0.00595163
Li       3.06733099       1.79990671       2.35875908      -0.00081959       0.01366492       0.01609930
Ga       0.91344747       3.32148839       0.72054650      -0.00018988       0.00066527       0.00815734
Ga       0.91767728       3.28830877       6.98841904      -0.00080201       0.01597752      -0.01770240
Sn       0.91404281       0.39372336       0.68966488       0.00011006      -0.00326274       0.00486348
Sn       0.91475185       0.23812183       3.83337664       0.00139453       0.01308737      -0.00166765
Sn       3.06854740       1.82705118       5.46382382      -0.00075082      -0.02116884      -0.00374665
16
Lattice="5.300197356524742 0.012805817055689745 -1.0235002074097785 -0.12866915213076377 6.0896558100762554 -0.09233205538839456 0.1614988335299815 0.0934465713748174 10.028483445840287" Properties=species:S:1:pos:R:3:forces:R:3 structure_index=4 total_energy=-49.8673210144043 stress="0.0026596554089337587 -0.0018376822117716074 1.211489779961994e-05 -0.001837788731791079 -0.004713224247097969 0.001377025619149208 1.1942142009502277e-05 0.0013770533259958029 0.0017677568830549717" pbc="T T T"
Li       4.51674231       0.10876443       4.68607602      -0.00795203       0.00972467       0.01241836
Li       1.96912144       6.06764144      -0.11616640       0.00932932      -0.00951468      -0.01162544
Li       0.67260909       0.03899626       2.84412034      -0.00076388       0.00045420      -0.00050374
Li       3.32725914       3.13656656       7.30546786      -0.00133967       0.00050226      -0.00157654
Ga       3.35112559       1.48784715       2.29018263      -0.01278545       0.03989272      -0.00406654
Ga       0.60498413       1.55964113       7.89287751       0.03577642       0.01693870      -0.00788934
Ga       3.39181754       0.09088239       7.35322771       0.00076815      -0.00172412      -0.00289914
Ga       0.60308572       3.08337098       2.80740086      -0.00128672      -0.00251218      -0.00743387
Ga       4.68457988       1.52712615      -0.46915913       0.00069457       0.02022759       0.01006439
Ga       3.15724598       4.68871982       2.27619684       0.00823173      -0.03891591       0.00784299
Ga       0.73826057       4.70518706       7.73028245      -0.03244827      -0.01854037       0.01502231
Ga       1.80188073       4.64404786       5.04784625       0.00590774      -0.01580168      -0.00968333
Sn       1.84548189       1.53044877       5.14109197       0.01027878       0.00368634      -0.00227504
Sn       2.04808271       2.95495634       0.02493365      -0.01659455       0.01409987      -0.01304920
Sn       4.43819271       3.22305762       4.55043132       0.01524793      -0.02078996       0.01781360
Sn       4.64925119       4.63893836      -0.55512057      -0.01306412       0.00227259      -0.00215948
4
Lattice="3.2118976183833245 -4.741377416550368e-06 3.415758783008502e-05 6.608076329838781e-05 4.769177146119046 0.0013784306154064894 -0.00028665672929319256 -0.0003281012329032146 5.341667346081472" Properties=species:S:1:pos:R:3:forces:R:3 structure_index=5 total_energy=-12.388130187988281 stress="-0.06531065702438354 2.956652497232426e-05 0.0005900330143049359 2.9613367587444372e-05 -0.03225421905517578 0.0009448531782254577 0.0005901447148062289 0.0009449690114706755 0.0971410721540451" pbc="T T T"
Li       0.85396515       3.54431179       1.96301900      -0.00005611       0.00021456      -0.04444469
Ga       2.45990561       3.54265952       4.41436303       0.00030905       0.00202235       0.05007827
Ga       2.45991362       1.15998736       2.80770254       0.00031861      -0.00129906       0.01601530
Sn       0.85505943       1.15931641       0.14654517      -0.00057155      -0.00093785      -0.02164890
12
Lattice="4.2828250513045045 0.0009426610020129495 0.77299448410128 2.1323895018251218 5.221436397873871 0.428748558609298 0.23674040011830016 -0.12620051422647652 10.931363441543951" Properties=species:S:1:pos:R:3:forces:R:3 structure_index=6 total_energy=-36.482791900634766 stress="-0.015189187601208687 -0.0005345977260731161 -0.0005546608590520918 -0.0005345732206478715 -0.016477713361382484 0.002976034302264452 -0.0005547475884668529 0.0029759262688457966 -0.01233629696071148" pbc="T T T"
Li       5.15490867       2.49339170       5.48274845      -0.00491071       0.00170157       0.02795966
Li       5.90645394       4.61009193       1.32637594      -0.00111213       0.01571450       0.00548852
Li       4.61384068       0.95239750       8.46948128       0.00295187      -0.00655628      -0.01556513
Ga       1.39590504       1.41520166       1.82143475      -0.00188560       0.01269092       0.00846312
Ga       3.28291625       0.50953252       3.61654738       0.00643167       0.00001110      -0.03453706
Ga       2.12675678       1.31102788      10.00893937      -0.00464463      -0.00472229       0.02448861
Ga       2.80470788       0.67637665       6.24713041       0.00815427      -0.00490716      -0.04628872
Ga       4.08135424       2.26098635      11.43139354       0.00058235       0.01128137      -0.00455992
Ga       2.92226495       4.68263021       5.59139170      -0.00490071      -0.00896745       0.02653728
Ga       2.58154606       2.89904184       7.47054412      -0.00137624      -0.01976272       0.01024666
Sn       4.47101683       4.02921133       9.25155334       0.00209777       0.00008916      -0.01045028
Sn       3.39191369       3.61213712       3.00841874      -0.00138789       0.00342725       0.00821724
6
Lattice="3.278700959268876 0.0004456936478274441 -0.00031117113814079655 -0.0012301715917504327 3.279962109298041 -8.387106035203862e-05 0.0002655312891758417 -6.540953143088982e-05 9.58570423127317" Properties=species:S:1:pos:R:3:forces:R:3 structure_index=7 total_energy=-17.423736572265625 stress="0.025089791044592857 -0.0031696148216724396 -0.0006749858148396015 -0.003169609699398279 0.026601642370224 0.00015862094005569816 -0.0006751821492798626 0.000158679744345136 0.07487986981868744" pbc="T T T"
Li       1.44589378       2.87026397       0.00375527       0.00008158      -0.00047922      -0.00515094
Li       1.44549433       2.86921263       5.97640941       0.00076001       0.00104543       0.00748470
Li       1.44683695       2.86975207       2.99021291      -0.00047709       0.00062701       0.00199392
Ga       3.08616490       1.23001130       1.52180565       0.00024363       0.00036033       0.00649530
Ga       3.08647962       1.23091614       4.46215126      -0.00040278      -0.00158197      -0.01093951
Sn       3.08600864       1.22994878       7.78295764      -0.00020535       0.00002844       0.00011654
10
Lattice="4.470777121110423 -0.0027352435667841526 -1.3100757020821132 -0.02922072885127726 6.064465908651645 -0.10179420149121164 -0.10960649377861159 -0.06135236459120564 7.912548477785128" Properties=species:S:1:pos:R:3:forces:R:3 structure_index=8 total_energy=-32.30765151977539 stress="-0.006386562250554562 -0.006211851257830858 0.008428655564785004 -0.006211814004927874 -0.0007120149093680084 -0.016931330785155296 0.008428625762462616 -0.01693129539489746 0.023701529949903488" pbc="T T T"
Li       4.13923946       5.87513241       0.86877683      -0.00049176       0.03257226      -0.00432383
Li       0.72352119       2.66881406       5.77398526       0.00293633      -0.00693755       0.00966172
Li       2.42455922       4.30518392       3.29318934       0.00095187       0.01521072       0.00410107
Ga       1.63911097       4.18549460       0.61604281       0.00020077       0.00254768      -0.00167802
Ga       3.23118125       1.16080693       6.04823347      -0.00104970      -0.01033053      -0.00374333
Ga       2.44575513       1.26242655       3.36546409      -0.00032412       0.00432158       0.00167822
Sn       0.55385940       5.75121324       5.19564635       0.00002900      -0.02794020      -0.00201237
Sn       3.28014938       4.22255722       6.21508488      -0.00105115      -0.01762398      -0.00179842
Sn       1.59996857       1.19916368       0.47826748      -0.00167734      -0.01704280      -0.00156820
Sn       4.30996895       2.85599462       1.44671382       0.00047607       0.02522281      -0.00031685
12
Lattice="4.445665434931082 -0.0024911710468076323 0.8246375743864122 2.146405550277227 3.894220810936554 0.8257725325414346 0.027255783689100064 0.01170673120379277 12.285128408060627" Properties=species:S:1:pos:R:3:forces:R:3 structure_index=9 total_energy=-33.286651611328125 stress="-0.023102911189198494 0.00011248704686295241 0.002133081667125225 0.00011252073454670608 -0.023553699254989624 0.0009720177622511983 0.002132806461304426 0.0009719770168885589 -0.036822594702243805" pbc="T T T"
Li       2.43323341       3.03491115       4.41419241       0.00439818       0.00200400      -0.01940461
Li       5.41185230       2.15816370      13.13800570       0.00224862       0.00184474      -0.00648274
Li       3.40782688       0.97514278      11.55093505       0.00174977       0.00211449      -0.00090607
Li       4.85535272       1.83539632       3.72569771      -0.00467526      -0.00140699       0.03274895
Li       1.57055625       2.51926037       9.09771344      -0.00721138      -0.00358332       0.01867758
Li       3.55297343       3.68937047      10.78486725       0.00213294       0.00037444      -0.01402760
Ga       3.02996505       3.38375680       1.15298671       0.00522234       0.00258487      -0.02531338
Ga       1.87076968       0.07137412       7.47497081      -0.00342627      -0.00298887       0.01669042
Ga       2.34405580       0.35660972       4.91951958      -0.00704688      -0.00458381       0.03569495
Ga       4.38870829       1.56352165       6.30735000       0.00028464       0.00018193      -0.01546464
Ga       3.90399472       1.27051905       8.90495514       0.00871559       0.00470574      -0.04035848
Sn       2.85862982       0.65583253       2.08164671      -0.00239228      -0.00124721       0.01814562
5
Lattice="4.019908788415986 0.018704364108480608 1.6075529605981653 1.96776628030406 4.77184227915631 0.8307659335137724 0.125363575048036 0.020868658356263354 5.534664372792957" Properties=species:S:1:pos:R:3:forces:R:3 structure_index=10 total_energy=-15.9625244140625 stress="-0.04953722655773163 -0.009213236160576344 -0.02657890133559704 -0.009213222190737724 -0.05660798400640488 0.016591480001807213 -0.02657882124185562 0.016591506078839302 0.011586845852434635" pbc="T T T"
Li       4.29032202       2.94783041       6.53618020      -0.00501366      -0.02026069       0.00584670
Li       3.01477052       3.95923558       3.87540609       0.00390316       0.02135728      -0.01979754
Ga       3.81594588       0.09673682       1.89286862      -0.00010722      -0.00666638       0.02648419
Sn       2.64465826       1.03040813       4.84325705       0.01281544       0.00160858      -0.04286129
Sn       1.40792076       2.05164406       2.07846192      -0.01159773       0.00396120       0.03032793
4
Lattice="4.0392069816589355 0.0 2.3272736072540283 1.3470237064999402 3.807331673066265 2.331006526947021 0.0 0.0 4.663018703460693" Properties=species:S:1:pos:R:3:forces:R:3 structure_index=11 total_energy=-12.01109790802002 stress="0.008654133416712284 -0.000272103090537712 -0.012386483140289783 -0.00027203914942219853 0.0022056479938328266 -0.005414482206106186 -0.012386348098516464 -0.005414425395429134 0.004780130460858345" pbc="T T T"
Li       4.81920641       3.17312580       6.86946090       0.00104417      -0.00069323       0.00150399
Li       2.12638743       1.26895435       2.21062293       0.00058285       0.00006369      -0.00144907
Ga       0.77900841       0.31759825       4.54123932       0.00081771      -0.00027993       0.00123473
Sn       3.47411795       2.22054536       4.54068259      -0.00244473       0.00090948      -0.00128965
17
Lattice="4.586835467452118 0.0003527964665026647 0.8219314656690986 -0.06329716582115114 6.143924239514028 0.35938388219640016 -0.0303741795659842 0.1943598739009323 13.390153593444278" Properties=species:S:1:pos:R:3:forces:R:3 structure_index=12 total_energy=-56.21548843383789 stress="-0.014778041280806065 0.0005074780201539397 0.0005315823364071548 0.000507456308696419 0.0013245472218841314 -0.0044357655569911 0.0005315847229212523 -0.004435735289007425 -0.01253124326467514" pbc="T T T"
Li       1.06030423       1.33911287       2.68427262       0.00089875       0.00740649      -0.00636886
Li       1.99401849       5.48434888      10.70435100       0.00095082       0.03330693      -0.01093145
Li       4.16487677       1.36199720      11.77995554      -0.00404713       0.00408434       0.02285165
Li       1.67596281       3.08645493      12.47234896      -0.00280739      -0.02376508       0.01401354
Li       2.72739436       1.14466419       6.59493300      -0.00323830      -0.00679471       0.01732905
Ga       0.55392413       5.77739184       5.51603179      -0.00301021       0.01220362       0.01852369
Ga       3.17862386       2.87520613       4.06891410       0.00613758      -0.00821633      -0.02733926
Ga       1.55304332       0.46743770      13.15880564      -0.00156665      -0.03051243       0.00647650
Ga       4.37542729       3.85289563      10.59992554       0.00772824       0.01382805      -0.03522810
Sn       3.16553076       5.81749455       4.14983166      -0.00093142      -0.01952326       0.00892497
Sn       3.91506818       4.83871763      13.18624855      -0.00592627       0.01433009       0.03666636
Sn       0.56792557       2.80921442       5.43423079       0.00361025       0.01376691      -0.02109112
Sn       2.17812343       2.20905219       9.65253262       0.00402478       0.00858186      -0.02379286
Sn       1.18098149       4.33981097       2.02570381      -0.00517668      -0.01404411       0.02527031
Sn       2.55823642       4.29274213       7.55025437       0.00444505       0.01098277      -0.02836379
Sn       3.67779307       1.95962796       1.29063474       0.00024289       0.01341025      -0.00358908
Sn       0.10893842       0.21901361       7.99855234      -0.00133430      -0.02904537       0.00664850
12
Lattice="4.31202809669453 -0.003550197568511632 -0.001126557392970183 0.0036662410690838296 4.419111858588897 -0.15156532888009913 0.003997654364670647 0.5068092639818237 13.03631207601618" Properties=species:S:1:pos:R:3:forces:R:3 structure_index=13 total_energy=-37.93821334838867 stress="0.01797359436750412 -8.005291601875797e-05 1.8613798602018505e-05 -8.006281132111326e-05 0.01589176245033741 -0.0027610724791884422 1.8647690012585372e-05 -0.002761024283245206 0.014625011011958122" pbc="T T T"
Li       1.60360176       3.88580268       3.43229115       0.00028289      -0.01103067      -0.00209405
Li       1.60388370       1.82939661       5.73612870      -0.00011510      -0.04342616       0.01279634
Li       3.76318374       3.81944733       9.85797438       0.00007704       0.04415480      -0.01308336
Li       3.76142961       1.76163811      12.16199406      -0.00001117       0.01135789       0.00006135
Ga       1.60683522       3.91359082      11.89598762      -0.00005195       0.04029012       0.02392485
Ga       3.76138510       1.75172115       7.82553435      -0.00033936      -0.00093584       0.00384997
Ga       3.75766842       1.73544177       3.69782244       0.00056466      -0.04048435      -0.02543489
Ga       1.60689613       3.89761140       7.76756470      -0.00023399       0.00135956      -0.00280007
Sn       1.60553613       1.65306347       9.96562052      -0.00016706       0.00756281       0.00018011
Sn       3.75828457       3.65900013       1.11581984       0.00127518       0.00473143       0.04483735
Sn       1.60114025       1.47864719       1.43866260      -0.00099995      -0.00400925      -0.04094645
Sn       3.76172930       3.99682884       5.62803180      -0.00028117      -0.00957033      -0.00129117
9
Lattice="2.9884434574883105 -0.002928760314395548 0.004469848744974179 0.022055516385349545 6.973098549458524 -4.00730408306941 -0.004089774528508799 -0.015459112080261753 8.042098516414242" Properties=species:S:1:pos:R:3:forces:R:3 structure_index=14 total_energy=-25.224790573120117 stress="-0.009768511168658733 0.01228808332234621 0.006378090940415859 0.012288019992411137 -0.006010901182889938 0.005122516769915819 0.006378043908625841 0.0051224809139966965 -0.010249066166579723" pbc="T T T"
Li       0.40082134       1.57298690       1.35467504      -0.00196866      -0.01031994       0.02259944
Li       1.89270815       1.95663490       3.99186317       0.00279726       0.00462356      -0.00288876
Li       0.41417509       6.33244036       1.01249279      -0.00216440      -0.01268877      -0.02416146
Li       1.90760456       6.33988139       3.65980316      -0.00062888      -0.00347613      -0.00449739
Li       1.90139184       3.85193324       0.02909799      -0.00016117       0.01044114       0.00617203
Li       0.40505557       4.25226309       5.30295401       0.00144632       0.02973620       0.00523590
Ga       0.40735288       4.05302348       2.56027824      -0.00036811       0.00014554      -0.00619596
Sn       0.39858495       1.72506311       6.57286246      -0.00050723      -0.00586916       0.00090571
Sn       1.90786580       6.38496527      -1.45686460       0.00155484      -0.01259244       0.00283047
8
Lattice="4.722480795880699 -0.007185640383505059 -3.247102912625911 -0.26243232504212977 4.716853926600895 -3.244031228407416 0.008513962763464177 0.005955496195245967 6.48005365291674" Properties=species:S:1:pos:R:3:forces:R:3 structure_index=15 total_energy=-23.084030151367188 stress="0.027398400008678436 0.018215302377939224 -0.002922849729657173 0.018215278163552284 0.030328670516610146 -0.0005377018242143095 -0.0029228972271084785 -0.0005377514171414077 0.021807245910167694" pbc="T T T"
Li       3.49199169       4.50676873       0.10898264      -0.00004891      -0.00665596      -0.00033732
Li       3.48767638       4.50064170      -3.12933426      -0.00061206       0.00587601      -0.00269536
Li       1.13000327       4.50821757       1.73522118       0.00155819      -0.00168952      -0.00152840
Li       1.25860698       2.14590992       0.11987724       0.00575401       0.00070477      -0.00668260
Li       1.26172050       2.14799647       3.35868915      -0.00351381      -0.00002200      -0.00510717
Ga       3.62214970       2.14588910       1.73299359       0.00253246       0.00062798       0.00151524
Sn       1.12626696       4.50271716      -1.50504713       0.00014165       0.00291039      -0.00435471
Sn       3.62093111       2.14339996      -1.51515477      -0.00581153      -0.00175168       0.01919032
12
Lattice="4.2407274191895485 0.0007158053700087547 -0.0012893884611449046 -0.000548165596340217 6.077924599197282 -0.025909785993053082 0.003232957478722274 0.02684942971520315 9.170090700713724" Properties=species:S:1:pos:R:3:forces:R:3 structure_index=16 total_energy=-37.014259338378906 stress="0.007630938198417425 0.0002858393418136984 0.00030585392960347235 0.0002858071820810437 0.02286818064749241 0.004611282609403133 0.0003058600996155292 0.004611373413354158 -0.010099145583808422" pbc="T T T"
Li       3.42483276       3.76679337       3.99463422      -0.00005145      -0.01063334       0.01879794
Li       1.30333674       5.41264011       2.25069220      -0.00001129       0.01771836      -0.00881452
Li       3.42570321       0.74778040       6.86719358      -0.00007804      -0.00124482      -0.02550804
Li       1.30573194       2.31141059       8.58565847      -0.00006811      -0.00849592       0.00610422
Ga       1.30414511       2.31658454       2.42441420      -0.00064739      -0.00707718      -0.00167832
Ga       3.42329088       0.82312469       0.77563228       0.00014815      -0.01665340       0.00451664
Ga       1.30448543       5.29413828       5.39380109       0.00018331       0.03396697      -0.01379845
Ga       1.30508695       5.48912364       8.43447434       0.00031046      -0.01144141      -0.00168646
Ga       1.30489669       2.25118959       5.43092040       0.00005041       0.01459889       0.01813084
Sn       3.42499864       0.73116676       3.84385225      -0.00014580      -0.00342809       0.01103387
Sn       3.42315825       3.85999012       0.91596887       0.00043125      -0.00894978      -0.00217295
Sn       3.42551229       3.79376579       6.98878285      -0.00012151       0.00163973      -0.00492480
18
Lattice="4.867774784086815 0.008155664129848979 -1.335582092062977 -0.7291360460645785 7.431274050119663 -2.6056299443038604 -0.05599805463352898 -0.18581253759103172 9.358081483988553" Properties=species:S:1:pos:R:3:forces:R:3 structure_index=17 total_energy=-51.75071716308594 stress="-0.016429495066404343 0.00045220053289085627 -0.00030109877116046846 0.0004525314725469798 -0.016289206221699715 0.002118538599461317 -0.00030125354533083737 0.0021182752680033445 -0.017350971698760986" pbc="T T T"
Li       0.94229364       0.93884287       2.81226182      -0.00418852      -0.02065609      -0.01319529
Li       3.18764653       4.57189488       1.47685919       0.00621236      -0.00440355       0.02622434
Li       2.45027639       3.28518826      -1.21838594       0.00767139       0.04115359       0.02934059
Li       1.17094698       3.55490524       3.68825859      -0.00452581      -0.00357302      -0.01715387
Li       3.76252226       2.04003039       3.58460095      -0.00077339       0.00066257      -0.00477073
Li       0.59439092       6.06591266       1.58174380       0.00042139      -0.01691290       0.00180820
Li       4.45606008       2.66390965       6.11320098      -0.00102122      -0.00626832      -0.00408930
Li       3.42951423       7.21783768       2.41733412       0.00537631       0.02133144       0.01695784
Li       1.34630470       0.46984545      -0.47366461      -0.00674711       0.00288402      -0.01073156
Li      -0.09630817       5.46662738      -0.93583564      -0.00072034      -0.00112967      -0.00162383
Li       3.78410869       0.47280509      -1.14634256       0.00170041       0.00546738      -0.00965853
Ga       3.07893578       1.95978918       1.05979585      -0.00020787      -0.00458784       0.00269909
Ga       1.26721688       6.20311748       4.07684241      -0.00336129       0.01171575      -0.01639024
Ga       1.91111125       4.99881505       6.40753860      -0.00304406      -0.01589667      -0.01055450
Sn       3.93844173       4.98039713       4.26006909       0.00015779      -0.00489618      -0.00052257
Sn       2.60129973       6.76128929      -0.63620412       0.00209143      -0.02302893       0.00896480
Sn       0.41416746       3.10219301       0.89646711       0.00024667      -0.00174473       0.00294886
Sn       1.76169079       1.38127161       5.82805559       0.00071186       0.01988308      -0.00025326
16
Lattice="5.8762262922812685 0.03758205221312859 -0.13144637418851365 -0.04271984149093598 6.343358456361596 -0.016745606098885594 -0.042889406809013826 0.018069412499081016 7.739062687817041" Properties=species:S:1:pos:R:3:forces:R:3 structure_index=18 total_energy=-46.35380554199219 stress="-0.01357813086360693 0.001379357767291367 -0.009872211143374443 0.001379355788230896 0.008320927619934082 -0.00012138592137489468 -0.00987219624221325 -0.00012138902820879593 -0.0032273167744278908" pbc="T T T"
Li       0.22063906       6.11793439       4.13465031       0.00008532       0.01744594      -0.00075617
Li       3.16215456       6.18271120       4.07494476      -0.00230646       0.02968908       0.00052409
Li       4.67690759       4.42945800       2.02235542      -0.00192117      -0.01243132      -0.01222040
Li       0.24717707       6.12888872       0.26089979       0.00020401       0.02567066       0.00084676
Li       1.66957315       4.41806038       6.11238954      -0.00160044      -0.01283028       0.01333864
Li       3.17663890       2.77447646       4.07543597       0.00410106      -0.04592112       0.00019474
Li       3.20035393       2.75912260       0.21026478       0.00142295      -0.01945450      -0.00096727
Ga       4.62689644       1.29691710       5.95685929      -0.00604246      -0.00622900       0.00013151
Ga       1.75994495       1.25151182       2.20228311       0.00332709      -0.00115449       0.00313271
Ga       0.26602855       2.68316905       0.28124925      -0.00054525       0.00133988      -0.00572739
Ga       4.69079830       1.30420905       2.09889938       0.01407848       0.01258783      -0.01387092
Ga       1.68284907       1.30491050       6.06453927      -0.00448939       0.00580123       0.01160452
Ga       0.24130292       2.72839959       4.13891594       0.00083255      -0.00921975      -0.00084506
Ga       3.18527648       6.15856941       0.18666720      -0.00544723       0.00902391       0.00359514
Sn       1.72714941       4.45947269       2.17545786       0.00453612       0.00064332       0.00063692
Sn       4.61773496       4.48122717       5.97457675      -0.00623519       0.00503859       0.00038216
4