4
Lattice="4.279711452297056 0.00019194263820187946 -0.00027587224169984214 -0.0017818212958791583 4.278990637259141 -0.0005647646997166996 5.276665892069096e-05 0.00010861438682884492 4.36575234134393" Properties=species:S:1:pos:R:3:forces:R:3 structure_index=0 total_energy=-12.532822608947754 stress="-0.018167268484830856 -0.002343960339203477 -0.0005325180245563388 -0.0023439505603164434 -0.020055163651704788 -0.0010949437273666263 -0.0005324019584804773 -0.001094910898245871 0.05831913277506828" pbc="T T T"
Li       2.56444938       0.88800319       1.92232315       0.00004247      -0.00053679      -0.00033466
Ga       2.56379500       3.02674448       4.10440423      -0.00026017       0.00047978       0.00037743
Ga       0.42490382       0.88736550       4.10456405      -0.00015478       0.00006502       0.00079480
Sn       0.42362819       3.02702625       1.92192343       0.00037249      -0.00000800      -0.00083757
5
Lattice="3.8331523696267666 0.00039384328723377556 -0.9598840369901404 -0.24208868550708385 3.8306241444524214 -0.9623017437951344 -0.000728020984847039 -0.003033979055954714 8.129961514903464" Properties=species:S:1:pos:R:3:forces:R:3 structure_index=1 total_energy=-16.166263580322266 stress="0.005273256916552782 0.0012376111699268222 0.006865296512842178 0.001237565535120666 -0.0017505291616544127 0.011646228842437267 0.00686532910913229 0.01164619904011488 0.03486238792538643" pbc="T T T"
Li       1.38959770       2.42390181       2.23526452       0.00135063       0.00114159      -0.00130476
Ga       2.40960104       1.46577729       6.29971917       0.00048574       0.00094970      -0.00090969
Ga       0.37186731       3.37921616       6.29471542      -0.00152810      -0.00059109      -0.00114776
Sn      -0.02363528       0.91399465       4.72011009      -0.00472106      -0.00404152      -0.01838261
Sn       3.04663169       0.10408162       0.70605537       0.00441278       0.00254132       0.02174482
4
Lattice="4.2269332798597885 -0.001321649996625548 0.0005303632797790505 0.0016910666305322908 4.227695088912904 0.001383208229022941 -0.00021587553962770803 -0.0005466050468301703 4.219981969018621" Properties=species:S:1:pos:R:3:forces:R:3 structure_index=2 total_energy=-11.990582466125488 stress="0.10216554999351501 0.00046421674778684974 0.00026137111126445234 0.00046412646770477295 0.1047770231962204 0.0006995158037170768 0.0002612458192743361 0.000699469877872616 0.006515678018331528" pbc="T T T"
Li       2.56241363       1.84648456       4.10784903      -0.00016099      -0.00017580       0.00021410
Li       0.44920076       3.96094775       4.10832872       0.00032297      -0.00026725       0.00014200
Ga       2.56314776       3.96062046       1.99883294       0.00014451      -0.00046244      -0.00022518
Sn       0.44904193       1.84677881       1.99774635      -0.00030649       0.00090549      -0.00013091
4
Lattice="4.314550333127867 0.0002570069448446569 -0.0005076610648256434 -0.0002718377835907362 4.307021544001276 -0.00024211908983035906 0.00047774752881781613 0.00015306064633176133 4.305708892288015" Properties=species:S:1:pos:R:3:forces:R:3 structure_index=3 total_energy=-12.532757759094238 stress="-0.08267249912023544 -4.208573591313325e-05 -5.7358603953616694e-05 -4.213063948554918e-05 0.02139011025428772 -0.0001379454624839127 -5.7393164752284065e-05 -0.0001378809247398749 0.018019266426563263" pbc="T T T"
Li       3.82615744       3.45386950       1.44044997      -0.00006437      -0.00009259      -0.00100863
Ga       1.66892090       1.30009412       1.44011056      -0.00014677       0.00017960      -0.00051853
Ga       1.66899859       3.45390392       3.59214802      -0.00010244      -0.00028299       0.00098517
Sn       3.82628556       1.30037638       3.59267172       0.00031359       0.00019597       0.00054200
5
Lattice="4.118379422628859 -0.11398419982013844 1.3153958161785988 -0.169237453017004 4.12603594142125 1.2734829358451423 -0.01638032521990212 -0.022513434260168823 6.2565589209430845" Properties=species:S:1:pos:R:3:forces:R:3 structure_index=4 total_energy=-15.910697937011719 stress="-0.0024805539287626743 -0.04633527994155884 0.03605126589536667 -0.046335309743881226 0.002702031983062625 0.02461901865899563 0.03605137765407562 0.024618960916996002 -0.026041952893137932" pbc="T T T"
Ga       0.85101388       2.55065755       2.08566590       0.00681260       0.00634828      -0.00574960
Ga       0.46603100       0.01133624       2.91255590      -0.00222900      -0.00018775       0.00470076
Ga       3.00026331       0.45098419       2.11701829       0.00972083       0.00856411      -0.00763813
Ga       3.37922435       2.97647765       7.54211342      -0.01614627      -0.01683223       0.00256615
Sn       1.91914967       1.48923644       5.22594407       0.00184183       0.00210758       0.00612084
4
Lattice="4.147774696350097 0.0 2.4007956981658936 1.384779695468623 3.9100841399131534 2.4014513492584237 0.0 0.0 4.792835235595703" Properties=species:S:1:pos:R:3:forces:R:3 structure_index=5 total_energy=-11.844173431396484 stress="-0.04713252931833267 0.004833103623241186 0.014257228933274746 0.004833211190998554 -0.054277583956718445 0.00890941172838211 0.01425718329846859 0.008909246884286404 -0.03232160210609436" pbc="T T T"
Li       1.61565895       1.22578569       2.52956956      -0.00360281      -0.00128037      -0.00404348
Li       2.99672763       2.20099781       4.92506929       0.00147680       0.00190235       0.00241945
Ga       4.38176054       3.18024884       7.32645665      -0.00319256       0.00096753      -0.00144097
Sn       0.22997561       0.24828199       4.92150262       0.00531857      -0.00158955       0.00306501
4
Lattice="4.2801288235731825 0.0003634778186538285 -0.00045269668801995025 -0.003366151158509459 4.278780313489958 -0.0029337508006069416 8.63159387134367e-05 0.0005686646519178824 4.366055973198047" Properties=species:S:1:pos:R:3:forces:R:3 structure_index=6 total_energy=-12.532817840576172 stress="-0.014555993489921093 -0.004414237570017576 -0.0008667496731504798 -0.0044142878614366055 -0.018101856112480164 -0.005688429344445467 -0.000866797287017107 -0.005688393954187632 0.06189430132508278" pbc="T T T"
Li       0.10274214       0.87760326       2.24561048       0.00057108       0.00006353      -0.00053504
Ga       0.10114268       3.01690697       0.06027513       0.00065529      -0.00067772       0.00084310
Ga       2.24410509       0.87669089       0.06114226      -0.00126499       0.00128843       0.00142254
Sn       2.24117232       3.01704087       2.24369240       0.00003861      -0.00067424      -0.00173060
12
Lattice="4.589167593189275 -0.0024503811113809697 0.00025428412797115805 0.0022206773106853497 7.023862040482448 0.02472273005070312 -0.002818698680227009 -0.007843368433099525 8.331243666363624" Properties=species:S:1:pos:R:3:forces:R:3 structure_index=7 total_energy=-38.043861389160156 stress="0.021315835416316986 -1.5354233255493455e-05 -1.749176408338826e-05 -1.544219776405953e-05 0.007832873612642288 0.0016610821476206183 -1.744359360600356e-05 0.0016610552556812763 0.027940750122070312" pbc="T T T"
Li       3.60773629       4.46845611       7.20652905       0.00004519      -0.01071905      -0.04164854
Li       1.31206824       0.97571871       3.01975135       0.00005958       0.01311196      -0.03843947
Li       1.31400630       4.49580866       4.36383194      -0.00016023       0.01108099       0.04170112
Li       3.60900191       0.97432138       0.19508530      -0.00005279      -0.01306406       0.03865945
Ga       1.31375700       3.10285683       0.82756266       0.00021632      -0.00276941      -0.01314480
Ga       3.60769638       2.34781491       4.99273009      -0.00017825       0.00604786      -0.01869423
Ga       1.31347813       6.61794729       6.57834088       0.00017565      -0.00940675       0.01562327
Ga       3.60980780       5.87119623       2.41102481      -0.00020587       0.00228741       0.01419666
Sn       1.31292519       2.40191601       6.52041704      -0.00008486      -0.00950558       0.01521285
Sn       3.60819745       3.06025324       2.35872562      -0.00004967       0.00872106       0.01170651
Sn       3.60825096       6.56153720       5.04911848       0.00018600       0.01352015      -0.01048897
Sn       1.31536323       5.91366359       0.88120297       0.00004892      -0.00930456      -0.01468386
14
Lattice="4.736061019560247 0.027031387295238855 0.03822479096110259 -2.293311670194837 6.6563085185362105 -0.9579227059948789 0.03508701662372492 -0.26278319485631874 7.975623433615884" Properties=species:S:1:pos:R:3:forces:R:3 structure_index=8 total_energy=-39.94053649902344 stress="0.007851222530007362 -0.00018560948956292123 1.437726132280659e-05 -0.00018558329611551017 -0.0017483177362009883 0.004727567080408335 1.437488117517205e-05 0.004727543331682682 0.0018147793598473072" pbc="T T T"
Li       0.14481281       5.54812184       3.67673219      -0.04430756      -0.01857748       0.00936996
Li       2.03001284       5.70671015      -0.09341648       0.04921022       0.00349275      -0.00139616
Li       2.54085953       4.58560355       5.10406130      -0.03432611      -0.00367113       0.00598747
Li       2.46833409       0.99978181       2.20698269      -0.03522521       0.01230658       0.00648251
Li       0.13136883       1.96695336       0.91510640      -0.03621140      -0.00681129      -0.00938486
Li       2.21793503       1.71638340       4.90281924       0.03535650      -0.00720906       0.00803118
Li       0.15799014       3.63393673       6.42113808      -0.04780803       0.00643185      -0.00670631
Li       4.54192748       0.84832497       6.18309988       0.03376171       0.01007343       0.00383191
Li       2.09488025       3.89516912       2.30752324       0.04184003      -0.00405851       0.00230342
Ga      -2.19200559       6.58868024       2.48636421      -0.03245482       0.01945238      -0.01735539
Ga      -0.40163392       4.87522256       1.09479263       0.03331929      -0.00691632       0.00196359
Sn      -0.13542932       2.70624207       3.65498542       0.03535587      -0.00258681      -0.00312094
Sn       2.12466418      -0.24974017       7.39924278       0.04757010       0.01272793       0.00511255
Sn       2.48845565       2.89653347      -0.35621374      -0.04608058      -0.01465435      -0.00511891
12
Lattice="4.16007528424156 0.00404680331843674 -0.6644405359395589 -0.12219707937750401 4.252450419559789 -0.6930213880890311 -0.03880095007225024 -0.035707353033244245 12.977071006240608" Properties=species:S:1:pos:R:3:forces:R:3 structure_index=9 total_energy=-36.623008728027344 stress="-0.027501750737428665 -0.003978877793997526 0.01149382721632719 -0.003978939726948738 -0.013389645144343376 0.012305034324526787 0.011493906378746033 0.01230514608323574 -0.008917470462620258" pbc="T T T"
Li       0.96196252       3.69584104       2.95196295       0.00306216      -0.00019781       0.01392553
Li      -0.01574323       0.47149211      10.04989292      -0.00797531      -0.00305102      -0.02855377
Li       3.34908508       4.02441233       4.53889949      -0.00119247      -0.00470441      -0.00982951
Li       0.31588832       3.01821738      12.17038208       0.00774193       0.00785273       0.03038426
Li       1.70468657       0.09660746       7.50721203      -0.00511594      -0.00318019      -0.02758317
Ga       3.11436986       1.57754962       3.04407394      -0.00145916       0.00397977      -0.02079137
Ga       1.31543200       1.87791657       5.12211158      -0.00452765      -0.00429806      -0.02320937
Ga       2.76546147       3.40218791       0.88092878       0.00029458      -0.00122921       0.01516636
Ga       0.72965234       1.25563771       1.46096351       0.00151002       0.00368217       0.01611989
Sn       2.00737146       2.61376949       9.43030833       0.00141063      -0.00365523      -0.01131483
Sn       3.73037960       2.23253397       6.87601330       0.00158054       0.00239060       0.00042368
Sn       2.42219602       0.85677846      11.94166595       0.00467068       0.00241068       0.04526229
18
Lattice="7.48782263578028 -0.006020338497131647 -3.7163046013910694 -2.173996792196789 5.999934459869183 -1.5273490449351443 -0.22562011223382875 -0.21666372127236747 7.096192482730602" Properties=species:S:1:pos:R:3:forces:R:3 structure_index=10 total_energy=-51.184627532958984 stress="-0.02154434286057949 0.001824861508794129 -0.006453820504248142 0.0018249001586809754 -0.01917422004044056 0.004907157272100449 -0.0064535862766206264 0.00490700313821435 -0.024545367807149887" pbc="T T T"
Li       3.23181478       0.45145723       3.78186315       0.00939365       0.00710037      -0.00222322
Li       2.61894722       2.58666254      -1.55651876      -0.01086516      -0.00499389      -0.01125117
Li       2.97995262       1.56913157       1.17404680      -0.01266206       0.00033344       0.01237043
Li       5.70532166       0.83161271       1.66193346       0.00418939       0.00242188       0.00014605
Li       2.12135654       3.52959032       3.01013978      -0.01123644       0.01033269       0.00691382
Li      -0.26111722       3.17871941       5.19245172       0.01238643       0.00560031       0.01297051
Li       4.14011531       4.92925269      -1.74749462      -0.00432353      -0.00171142       0.00403782
Li       0.23763648       2.23668820       0.62743423       0.01077294      -0.00950672      -0.00845088
Li      -0.62232633       4.19763340       2.46359808       0.01319918      -0.00059435      -0.01277813
Li       6.12479719      -0.01165211      -2.82733265      -0.00002824      -0.00078512       0.00004001
Li      -0.87020917       5.31398778      -0.14356615      -0.01202311      -0.00632799      -0.00007271
Ga       0.86388237       0.05679379       5.92842478      -0.01542558      -0.00210834       0.00552694
Ga       5.21852323       1.88381452      -0.87475731      -0.00802217       0.01020222      -0.00557325
Ga       4.62905267       3.87357324       0.78989976       0.00614253      -0.00854786       0.00812322
Ga       1.49383682       5.70963668      -2.29093139       0.01441218       0.00018167      -0.00618209
Sn       1.86071664       4.54711670       0.32993336      -0.00466994      -0.00454334       0.02084031
Sn       5.03647391       2.98863005      -3.58858447       0.00010435      -0.00141615      -0.00363756
Sn       0.49856433       1.21848529       3.30666398       0.00865553       0.00436256      -0.02080009
10
Lattice="4.4350076526656075 -0.002394411167517031 -0.0010721696740717188 -2.2154675005652944 4.943267407227099 -0.06554090125868244 0.0032528957381191357 -0.05518618790870711 9.538748213694479" Properties=species:S:1:pos:R:3:forces:R:3 structure_index=11 total_energy=-31.946413040161133 stress="-0.004653936251997948 -0.0013507066760212183 0.000761425937525928 -0.0013507105177268386 -0.01895919069647789 0.0049502067267894745 0.0007614056230522692 0.004950178321450949 -0.017422404140233994" pbc="T T T"
Li       0.30372071       3.75205955       3.67230599      -0.00017027      -0.01442629      -0.01121866
Li       0.30309805       1.59292428       9.39979056       0.00074373       0.01409467       0.01055180
Ga       2.52341123       3.55715761       8.45078081      -0.00120635       0.03576617      -0.02520387
Ga       2.52089628       1.78512028       4.61765430       0.00021618      -0.03637276       0.02621074
Ga       2.51834011       2.69910323       1.76500538       0.00112006      -0.00059568       0.00036717
Ga      -1.91117873       4.61383682       5.64005194      -0.00061383       0.02780935      -0.02447594
Ga       2.52227412       0.72863709       7.43127565      -0.00035262      -0.02761802       0.02400614
Sn       0.30182306       0.75606869       2.82832466      -0.00055148      -0.01110101      -0.01134088
Sn       0.30207397       4.64335865       0.70422416       0.00083154       0.01180159       0.01084490
Sn       0.30520415       2.67064610       6.53523101      -0.00001695       0.00064200       0.00025859
8
Lattice="4.434424449461417 -0.007842620552797195 -0.967901550238679 -0.1987572488024092 4.444711042873008 -0.9550668373575409 -0.18664562195437603 -0.19122911889269809 10.016009932370798" Properties=species:S:1:pos:R:3:forces:R:3 structure_index=12 total_energy=-26.26099395751953 stress="0.02589261904358864 0.0023365006782114506 -0.012820658273994923 0.002336546080186963 0.024288423359394073 -0.013966009952127934 -0.012820559553802013 -0.013966013677418232 -0.03170013800263405" pbc="T T T"
Li       2.92373120       2.66613951       3.27774530       0.00141789       0.00291990      -0.00238463
Li       3.98608598       1.45417985       8.28360445      -0.00109436       0.00268117      -0.00155180
Ga       1.66708608       3.67925286       8.29058291      -0.00056924       0.00374891      -0.00330004
Ga       0.80732737       0.44531532       4.23900907      -0.00047692       0.00280272      -0.00254294
Sn       0.03463671       2.05344771       6.52777250      -0.00505949      -0.00373319       0.00386595
Sn       1.37715878       1.13324141       1.47770512      -0.00087520       0.00241494      -0.00078048
Sn       2.33833105       4.27293709       5.52872613       0.00488810      -0.00312868       0.00283976
Sn       3.50164599       3.16748853       0.55462342       0.00176922      -0.00770578       0.00385416
20
Lattice="7.706906091930356 -0.04887752637513215 -2.4047587350419364 -4.22962599492202 6.421766261970791 -2.3442766533559456 0.038443965139190954 0.06911415821326658 8.04548218896592" Properties=species:S:1:pos:R:3:forces:R:3 structure_index=13 total_energy=-61.91450119018555 stress="-0.007506981026381254 -0.005768598988652229 0.005874280817806721 -0.0057686977088451385 -0.012517414055764675 0.013020800426602364 0.005874264054000378 0.013020948506891727 -0.009692598134279251" pbc="T T T"
Li      -1.90747648       3.00209155       4.02206633       0.00792084       0.01034334       0.00399611
Li      -2.65483540       5.87894661       3.38262240      -0.01610645      -0.01601811      -0.00373514
Li       2.80697760       4.53242992      -2.41643667       0.00380276      -0.01013491       0.00431600
Li       6.04428414       1.97923346       4.54625292      -0.00218789       0.00880018       0.00024371
Li       3.78810222       0.68637086       1.09499435       0.00413177       0.00400256      -0.00923369
Li       3.55444556       1.62832564      -1.75720809       0.00846615       0.00517948       0.00280637
Li       2.58875034       5.54947686       2.71326501       0.00653295      -0.02547380      -0.00226089
Li       0.28495274       4.22468711      -0.62047645      -0.00825494       0.02102045      -0.01242622
Li       0.57065162       3.25959500       2.27989464       0.00244942       0.00088079       0.01626253
Li       1.29973553       0.39548617       2.86328345      -0.00465518      -0.01435710       0.01000634
Ga       6.38536731       1.01955184      -0.71989824      -0.02671040       0.02584003      -0.00362816
Ga      -0.15554657       6.13150464       1.60333637      -0.00858825       0.02088919       0.02073587
Ga       0.93268378       1.32523153       0.07587208       0.02472038      -0.03919264      -0.01329079
Sn       0.80654158       2.31647754       5.26773977      -0.00057841      -0.03858886      -0.02301639
Sn      -2.12626868       3.90390853       1.16237601       0.00292167      -0.00224678      -0.00407050
Sn      -2.41888635       4.96193374      -1.80255605      -0.01740704       0.01602794      -0.00032246
Sn       2.97324299       3.48845868       0.49283413       0.01305293       0.00461895       0.02642058
Sn       3.32374370       2.52949715       3.43866571      -0.02226480       0.01287385      -0.01053755
Sn       6.47594729       0.06794732       2.16027590       0.03043652      -0.00810685       0.01440477
Sn       0.18338756       5.36374375       4.43328616       0.00231800       0.02364230      -0.01667047
12
Lattice="4.146307302748641 -0.0032346559189230344 0.0003891932368336182 -2.0679996886976997 6.313943717749912 -0.19053840568382796 -0.0007654052302036382 -0.08510154879729537 8.411949006337114" Properties=species:S:1:pos:R:3:forces:R:3 structure_index=14 total_energy=-35.56515884399414 stress="-0.0217059925198555 0.00016159862570930272 -0.0001030873681884259 0.00016162778774742037 -0.0036594283301383257 -0.0011839489452540874 -0.00010307493357686326 -0.0011839848011732101 -0.009051214903593063" pbc="T T T"
Li      -0.35699508       1.88822914       6.18895770       0.00028466      -0.01303689       0.01132601
Li       1.71946369       4.32198837       1.92309236      -0.00016644       0.02204881       0.02279576
Li       1.71593454       0.02006710       2.02686500      -0.00017784      -0.00008446      -0.00052284
Li       1.71873818       4.38100604       6.08602275      -0.00004010       0.01361051      -0.01200516
Li      -0.35595186       2.03206472       1.93887122       0.00012589      -0.02241166      -0.02225347
Ga       1.71713068       1.93858951       8.24839220      -0.00043056      -0.00856305       0.00539359
Ga      -0.35463299       4.33003835       4.02494352       0.00032283       0.00930559      -0.00334821
Ga       1.72048326       6.29583339       3.93836223      -0.00016792      -0.00039184      -0.00797106
Ga       1.71495317      -0.02120640       6.23248441       0.00003861      -0.00206503       0.00003931
Ga       3.78822640      -0.02902412       8.33647237       0.00016933      -0.00126975       0.00799942
Sn      -0.35460491       4.08249657       8.21535045       0.00010716      -0.01088847       0.00037801
Sn       1.71694692       2.18509298       4.05977982      -0.00006561       0.01374620      -0.00183135
4
Lattice="4.097309402094549 -7.808645865231843e-05 0.00123872370853824 0.001179178774911897 4.094570963229822 -0.000591280214346061 -8.314616290913584e-05 3.917073051297441e-05 4.090726431287924" Properties=species:S:1:pos:R:3:forces:R:3 structure_index=15 total_energy=-11.68010139465332 stress="-0.01334711816161871 0.0012485336046665907 0.0013287896290421486 0.0012486109044402838 -0.022788580507040024 -0.0006231729057617486 0.0013287352630868554 -0.0006231688312254846 -0.03615643084049225" pbc="T T T"
Li       3.90227882       1.73060359       2.53723298      -0.00052507      -0.00173138      -0.00236573
Ga       1.85335371       3.77596345       2.53556113       0.00113259       0.00165926      -0.00287561
Ga       3.90307864       3.77582996       0.48836676      -0.00120604       0.00175817       0.00316189
Ga       1.85323134       1.72981827       0.48895406       0.00059852      -0.00168605       0.00207945
6
Lattice="4.521889571125771 -1.9632245755226724e-05 -0.000601980087718711 -2.259422545642849 3.919571118012015 0.0003275292552709723 0.00036411862559801987 -0.005384142174278403 7.374772224247768" Properties=species:S:1:pos:R:3:forces:R:3 structure_index=16 total_energy=-19.262775421142578 stress="0.009128225035965443 0.001440305495634675 -0.0010429725516587496 0.001440361374989152 0.02597801387310028 -0.007301914505660534 -0.0010430162074044347 -0.007301953621208668 -0.03894926607608795" pbc="T T T"
Li       2.39334174       0.16893099       0.11862859       0.00048216      -0.00025048       0.04638131
Li       2.39588076       0.16394249       3.80764311      -0.00047247      -0.00026256       0.04462830
Ga       0.13439370       1.47073226       4.93036242       0.00018218      -0.00286988      -0.02628672
Ga       2.39569474       2.78061634       1.24276353      -0.00099686       0.00032560      -0.02657915
Sn       0.13458751       1.47310400       2.11116048      -0.00019240       0.00015266      -0.01863201
Sn       2.39538669       2.77660048       5.79839301       0.00099737       0.00290466      -0.01951172
11
Lattice="4.131815162221412 0.0035952605185467783 1.3886976683442704 0.8168990282581645 6.2604333844253 4.386515401487334 -0.16697916380294409 0.28441069459265916 7.331307572540913" Properties=species:S:1:pos:R:3:forces:R:3 structure_index=17 total_energy=-30.549650192260742 stress="-0.0036221384070813656 0.013005562126636505 0.0076153464615345 0.013005525805056095 -0.002198415342718363 -0.03664574772119522 0.0076151457615196705 -0.036645885556936264 -0.020052595064044" pbc="T T T"
Li       2.80791809       4.72111416      10.53211576       0.00193353      -0.00643268      -0.00426913
Li       2.12095950       1.18912131       5.75149887      -0.00035735      -0.00444893       0.00180578
Li       4.59524236       5.38001869       5.21503186      -0.00202452      -0.03671262       0.01083906
Li       2.98125337       1.53377979       3.19853912       0.00990078       0.02848848      -0.03244054
Li       3.75427381       2.32888252       7.72905971       0.00046913       0.02979013      -0.00098476
Li       1.23168574       3.62250300       8.39014156       0.00041032      -0.00792977      -0.00273865
Ga       3.66361032       5.12492543       7.98230334      -0.00339264       0.03090494       0.01172025
Ga       1.21068131       6.35837440       8.43787769       0.00187943       0.00264166      -0.00503253
Ga       0.49703059       2.71102999       3.74751796      -0.00282124       0.00158883       0.00256174
Ga       2.14829267       3.81178110       5.67121907      -0.00184643      -0.01807445       0.00421499
Sn       1.38645496       0.43395515       1.10148779      -0.00415103      -0.01981560       0.01432379
8
Lattice="4.620584127762657 0.0005303841512043612 -0.0009418926299494552 -2.3093726575391815 4.002915482197795 0.0009918756538030056 0.0005259025165091826 0.0018246591669232282 8.658012513043092" Properties=species:S:1:pos:R:3:forces:R:3 structure_index=18 total_energy=-23.907238006591797 stress="-0.025406012311577797 -0.0001770215603755787 -0.00011122811702080071 -0.0001770088856574148 -0.025580300018191338 0.0007415341096930206 -0.00011111188359791413 0.0007417617598548532 0.042542748153209686" pbc="T T T"
Li       2.27696861       3.19065211       8.35626568       0.00095368      -0.00040695      -0.02183751
Li       2.27598063       0.52161690       3.81785910       0.00052943      -0.00005763       0.03814886
Li       2.27751559       0.52033695       0.85390586      -0.00101545       0.00045673       0.02237788
Li       2.27927628       3.18893755       5.39260154      -0.00109964       0.00041184      -0.03843153
Ga      -0.03349008       1.85562120       7.60231099       0.00092969       0.00019977       0.02718795
Ga      -0.03263697       1.85487856       1.60833688      -0.00090945      -0.00016219      -0.02623976
Sn       2.27752122       3.18979326       2.53893883       0.00072009      -0.00021534       0.00128234
Sn       2.27695072       0.52126056       6.67145089      -0.00010835      -0.00022621      -0.00248823
6
Lattice="4.4119954523406175 0.0010939556444227274 -0.001102250688294632 -2.2040277380254345 3.8234176999715803 -0.0005214496767356796 0.0019605196391572935 0.0018052402269871446 7.1912471637299475" Properties=species:S:1:pos:R:3:forces:R:3 structure_index=19 total_energy=-18.500490188598633 stress="0.028360575437545776 0.001432751421816647 0.00037868740037083626 0.0014327371027320623 0.03672237694263458 0.0002580895961727947 0.0003786723536904901 0.00025808560894802213 0.04782092571258545" pbc="T T T"
Li      -1.74180335       3.74893398       5.70290591       0.00052871      -0.00029159       0.00152374
Ga       0.46427417       2.47299014       4.36874771      -0.00022494       0.00113982      -0.03593941
Ga       2.66977319       1.19928428       0.49433406      -0.00037942      -0.00127138      -0.01196051
Ga       0.46545049       2.47512298       7.04065634      -0.00013103       0.00056157       0.03498455
Ga       2.66997957       1.19822451       3.72357771       0.00039030       0.00025296       0.01110683
Sn      -1.73961089       3.74646708       2.10867748      -0.00018363      -0.00039137       0.00028481
8
Lattice="5.225814092819639 0.04884197246952911 -0.09693906583561594 -2.7074381006651995 5.052695965954926 -1.3148233156324662 0.0396906130857588 -0.1919069845240849 6.120562640255759" Properties=species:S:1:pos:R:3:forces:R:3 structure_index=20 total_energy=-24.976890563964844 stress="0.01800454407930374 -0.010434851050376892 -0.004501542542129755 -0.010434772819280624 0.04418151080608368 0.00451771542429924 -0.004501527640968561 0.004517743829637766 0.001509721390902996" pbc="T T T"
Li       4.20969748       0.78032256       2.25625289       0.02765737      -0.00194870       0.01961087
Li       3.21761192       3.29452626       3.90325109      -0.00318262       0.02106201       0.01287918
Ga       1.48107560       0.80176636       0.78123452      -0.02868936       0.00005548       0.00242082
Ga       4.21808623       0.81116182       5.34457592      -0.02132077      -0.01999388       0.00889842
Ga       0.61208970       3.23666381       2.39944561       0.02282262      -0.00350754      -0.00632941
Ga       3.20754148       3.20580844       0.91872311      -0.00249445       0.01084149      -0.04058427
Sn       0.61381512       3.49394231      -0.65632249       0.01114387      -0.01476731      -0.00931356
Sn       1.60388874       0.67224047       3.79911539      -0.00593667       0.00825842       0.01241796
20
Lattice="5.217632017927771 -0.04066149560834827 -0.4872346787096975 -1.2402554238706414 8.132327946799311 -3.3632583129251783 -0.042165965618899806 -0.0877902117275816 9.001997551190314" Properties=species:S:1:pos:R:3:forces:R:3 structure_index=21 total_energy=-59.96772003173828 stress="0.011691426858305931 0.002858514664694667 0.006167358718812466 0.0028584895189851522 -0.009411641396582127 0.009383724071085453 0.00616745138540864 0.009383655153214931 0.00186099240090698" pbc="T T T"
Li      -0.12701279       0.84150771       7.97348023      -0.00124054       0.02308990      -0.02406640