5
Lattice="4.348124448297095 0.0015316824410736883 1.8699885680566397 2.115138078653601 5.523486418507337 1.0690235663322365 0.06557656095751208 0.10461433254318454 5.8378123913088675" Properties=species:S:1:pos:R:3:forces:R:3 structure_index=0 total_energy=-19.63991928100586 stress="0.02643962763249874 0.0060138339176774025 0.014540442265570164 0.006013847421854734 -0.028432229533791542 -0.011973084881901741 0.014540445990860462 -0.01197309885174036 -0.0016733049415051937" pbc="T T T"
Sn       5.09739870       4.36891499       2.35162862      -0.00157661       0.00117265      -0.00030526
Sn       4.70698934       1.08049795       3.25149766       0.00331258      -0.00306266       0.00096928
Sn       3.43379892       2.24124504       6.21911998      -0.00121515       0.00153628       0.00011550
Sn       3.81930539       5.53587334       5.32085619      -0.00029040       0.00015774      -0.00143352
Sn       2.09078759       3.30727396       3.35032676      -0.00023042       0.00019600       0.00065399
6
Lattice="3.392362970027021 -0.0030847632390895324 0.00024897728557974746 -1.6935749877222654 2.9392374576844067 0.0004026015845797218 -0.0002266363730477108 -0.0005635421505064849 16.64349088762895" Properties=species:S:1:pos:R:3:forces:R:3 structure_index=1 total_energy=-23.56412124633789 stress="-0.03382924199104309 0.0001430236443411559 0.00035694308462552726 0.00014299628674052656 -0.03342679515480995 0.0007434383151121438 0.00035692003439180553 0.0007434385479427874 -0.04395925998687744" pbc="T T T"
Sn       1.90484249       0.93335376       3.03475339       0.00008403       0.00024937       0.00290937
Sn       1.90558827       0.93247735      14.13233283      -0.00019979       0.00014949       0.00288421
Sn       1.90557555       0.93304110       8.58539286      -0.00008180       0.00003208      -0.00400020
Sn      -1.48571078       2.89398453      11.35911848       0.00016552       0.00009684      -0.00027400
Sn      -1.48581930       2.89611228       0.26774440       0.00011972      -0.00031789      -0.00869924
Sn      -1.48512373       2.89564161       5.80584125      -0.00008768      -0.00020989       0.00717986
12
Lattice="5.657942105397566 0.0022473126865438313 0.023534350538219045 -0.0029315582405505724 6.222312033426304 -0.0026539016225796083 -0.04040691582535714 0.0034419944545901367 9.800361370332222" Properties=species:S:1:pos:R:3:forces:R:3 structure_index=2 total_energy=-47.36540222167969 stress="-0.009560136124491692 -0.0005591504159383476 0.0004546898417174816 -0.0005591544904746115 -0.012552717700600624 -0.0005366316763684154 0.0004546967684291303 -0.0005366513505578041 -0.008788026869297028" pbc="T T T"
Sn       4.47394513       5.99810150       7.61334765       0.00435719       0.00294144      -0.01505250
Sn       4.50612895       6.00032008       1.06931399      -0.00174946       0.00089895       0.01160969
Sn       1.64257668       6.00322520       9.22397761      -0.00248509       0.00003486       0.00427778
Sn       4.49020857       2.88906857       4.33967310       0.00303270       0.01163538       0.00915630
Sn       4.47647616       2.88703986       7.62017476       0.00209174       0.00259051      -0.02154521
Sn       1.67144680       2.88848109       2.69706313      -0.00185047      -0.01319701      -0.00444480
Sn       1.64239768       2.89290034       9.21948653       0.00090936      -0.00382470       0.02079179
Sn       4.50807939       2.88993510       1.07685540      -0.00312319      -0.00255401       0.00191300
Sn       1.66972246       5.99178478       2.68792773      -0.00087773       0.01861294       0.00996461
Sn       1.65512466       2.89072938       5.96574353      -0.00088261      -0.00554030      -0.01000381
Sn       4.49012801       6.00720963       4.34171838       0.00021092      -0.01626119      -0.00154490
Sn       1.65304137       5.99935044       5.96048492       0.00036663       0.00466313      -0.00512195
12
Lattice="4.719563591102032 0.0002803697371645768 -5.571850608467671e-05 -0.0002457646309779797 4.7139389401110945 0.0005578282326450634 -0.0002716038752894409 -0.002826043302483171 15.04480597685925" Properties=species:S:1:pos:R:3:forces:R:3 structure_index=3 total_energy=-47.13558578491211 stress="-0.011688842438161373 8.154776151059195e-05 -4.84315023641102e-06 8.15755920484662e-05 -0.0224557276815176 -0.0003075521090067923 -4.836017524212366e-06 -0.0003075632266700268 0.0032245717011392117" pbc="T T T"
Sn       4.29632464       0.26350825      13.27859732       0.00203905      -0.00136524      -0.00630290
Sn       1.94326693       0.25877429      10.76341455      -0.00085232       0.00048533       0.00770124
Sn       4.30268287       2.61570809      10.77280101      -0.00030962       0.00082286       0.00211388
Sn       1.94593193       2.61550786       8.27284674      -0.00081654       0.00056897      -0.00947717
Sn       1.94005451       0.26428042       0.74423672      -0.00052106       0.00182785      -0.00630790
Sn       4.30580767       0.25802096       8.24855869      -0.00081320       0.00198214       0.00587492
Sn       4.30106957       0.26935451       3.25082063      -0.00042496      -0.00024702       0.00138887
Sn       4.30363798       2.62319098       5.74249905      -0.00055670      -0.00167585       0.01036030
Sn       1.93690418       2.62014664      13.29255990       0.00114208      -0.00099542      -0.01528369
Sn       1.94030065       2.62782816       3.23505598       0.00118980      -0.00348535       0.01069802
Sn       4.29963997       2.62156534       0.74342668      -0.00046253       0.00120504      -0.00557562
Sn       1.94354099       0.26484371       5.75124056       0.00038602       0.00087669       0.00481004
7
Lattice="3.346457084811811 0.0017770742212558984 0.5627093014480519 1.6250752619798994 2.925436378762013 0.561226676074391 0.11772593529971664 0.07960925150373499 19.815530821127886" Properties=species:S:1:pos:R:3:forces:R:3 structure_index=4 total_energy=-27.493213653564453 stress="-0.006355087738484144 -0.00048271333798766136 -0.00538302306085825 -0.00048271421110257506 -0.00431278208270669 -0.0050622872076928616 -0.005382994189858437 -0.005062325857579708 0.01463237777352333" pbc="T T T"
Sn       1.38374793       0.43066802      17.13223990      -0.00185817       0.00074202       0.01290124
Sn       3.50491648       1.67688753      14.80395098       0.00194245       0.00128675      -0.02301313
Sn       1.50376996       2.47434434       6.03353747      -0.00274389      -0.00041420       0.02774817
Sn       4.22877188       2.12377435      20.60694556       0.00135380      -0.00141125       0.00014862
Sn       1.99613813       0.79876392       3.14283653       0.00062945      -0.00008329      -0.01093519
Sn       2.27175718       2.91937585      11.87189532      -0.00432638      -0.00026297       0.01762131
Sn       2.74712334       1.24348285       8.97815928       0.00500275       0.00014293      -0.02447103
14
Lattice="5.939955579981032 -0.18653870320669458 0.8506634481942893 1.871825056139017 6.213596538775822 2.7059068179293 -0.12920486069088946 -0.47435101388020645 10.334689261985835" Properties=species:S:1:pos:R:3:forces:R:3 structure_index=5 total_energy=-54.97642135620117 stress="-0.007285009138286114 -0.005389353260397911 0.0015076829586178064 -0.005389349535107613 -0.003912218380719423 -0.010614808648824692 0.0015076843556016684 -0.010614796541631222 0.014895767904818058" pbc="T T T"
Sn       2.17243902       5.56309698      10.30277312       0.00014791      -0.01106855       0.00799324
Sn       4.52804049       1.98052605       7.76501253      -0.00166524      -0.01349087       0.01396224
Sn       1.23876949       2.42867761       8.97530814      -0.00425152       0.01607563      -0.01285043
Sn       2.78714900       4.75802746       7.09760473      -0.00475104       0.01353083      -0.00556133
Sn       5.45775955       5.06874148       9.11502099       0.00204855      -0.00014591       0.00772062
Sn       2.47915580       0.88526168       2.52308748      -0.00353300       0.00180074      -0.00578769
Sn       2.97005901      -0.36215976       9.62052265       0.00269832      -0.00314996       0.01398854
Sn       5.14392226       1.19577848       4.55598350      -0.00083933      -0.01119512      -0.00191667
Sn       6.07539112       4.29709389       5.90803902       0.00018617      -0.00088115       0.00037058
Sn       6.69620896       3.51853652       2.70086943       0.00082869      -0.00122264      -0.01284972
Sn       5.75247101       0.39450966       1.34141315      -0.00123758       0.01077286      -0.00434480
Sn       3.41624263       3.99594384       3.87408230       0.00292315       0.00245884      -0.00059011
Sn       1.85580466       1.66717171       5.73923459       0.00663326       0.00061872       0.00170759
Sn       3.90570183       2.74821454      10.99416732       0.00081166      -0.00410341      -0.00184206
5
Lattice="3.376082704586644 0.002361720585196273 0.3926602730461935 1.6634493709546894 2.938096380992707 0.3917950760036533 0.08584490871397846 0.05197020236399272 13.959851197529213" Properties=species:S:1:pos:R:3:forces:R:3 structure_index=6 total_energy=-19.638437271118164 stress="0.019318807870149612 0.00047828597598709166 0.007223932072520256 0.00047831525444053113 0.01910652592778206 0.003208021866157651 0.007223951164633036 0.0032079697120934725 -0.046064481139183044" pbc="T T T"
Sn       3.83968956       2.88331452       8.78706444       0.00008524       0.00013701      -0.00076935
Sn       1.84065746       1.71808059      11.26270308       0.00034898      -0.00044864       0.00242773
Sn       2.79542382       2.27532347       3.04822114       0.00146817      -0.00012347      -0.00421012
Sn       0.79933964       1.10873932       5.52590881      -0.00028048       0.00021997      -0.00175106
Sn       3.22168049       0.55315619      14.13321731      -0.00162191       0.00021514       0.00430280
14
Lattice="6.297933075580508 -0.42759033370464067 0.3544880464141216 -0.8630876296078537 6.763003209575541 -1.1314811594973795 -0.2554323681670211 -0.07060465850102624 9.659315885944835" Properties=species:S:1:pos:R:3:forces:R:3 structure_index=7 total_energy=-55.10375213623047 stress="-0.010250086896121502 0.003686040174216032 -0.003202438820153475 0.0036860047839581966 -0.01722404733300209 -0.005482470151036978 -0.0032024679239839315 -0.005482465960085392 0.01400745753198862" pbc="T T T"
Sn       4.87655663       1.46451811       1.28421606      -0.03003728       0.01057271       0.03417922
Sn       1.71930337       1.68568753       1.13337730      -0.01463001       0.00059600       0.02149691
Sn       4.76606748       2.38420239       8.04181406      -0.00571541       0.00673317       0.00134458
Sn       0.17608483       4.51114679       2.01760252       0.01619554      -0.00243405      -0.01734919
Sn       4.64638596       0.43358678       4.20279246      -0.01681735       0.00553930       0.01879231
Sn       1.49395064       0.64500665       4.04513023      -0.01366861       0.00377957       0.00640736
Sn       0.12813082       5.48338182       8.77445163       0.01601294      -0.00249039      -0.02095578
Sn       1.60812750       2.60365339       7.90138010       0.00619459       0.00379054      -0.01963166
Sn       0.37668055       6.45258042       5.84305321       0.00029437      -0.00988742      -0.00083588
Sn       3.32561864       4.29616900       2.20763984       0.02270489      -0.00215586      -0.03114665
Sn       0.01195194       3.53388497       4.91385037      -0.00262510      -0.00478418       0.01581625
Sn       3.53010073       6.23012315       6.00844044      -0.00201026      -0.00342821       0.00260941
Sn       3.27801161       5.26110227       8.94807957       0.01899434      -0.00316396      -0.01669657
Sn       3.15359484       3.30846096       5.10682751       0.00510735      -0.00266722       0.00596969
6
Lattice="5.216373371517007 -0.001484057721317746 2.7194827175517586 1.9069447357071987 4.858576931161861 2.722523048003643 -0.07029454013880938 -0.048665183539293444 6.50289898785857" Properties=species:S:1:pos:R:3:forces:R:3 structure_index=8 total_energy=-23.564067840576172 stress="0.03929613530635834 -0.0037721204571425915 0.015693731606006622 -0.0037721027620136738 0.04519883915781975 0.01146931853145361 0.015693774446845055 0.011469298973679543 0.01863710582256317" pbc="T T T"
Sn       2.28850690       4.59240713       5.30394198       0.00260682      -0.00020136       0.00095060
Sn       2.75962544       1.35278271       4.39162764       0.00054605      -0.00001139       0.00201304
Sn       4.54712922       3.75387501       9.46570907      -0.00093665      -0.00151139      -0.00420187
Sn       2.17081148       2.13063166       7.64151145       0.00266528       0.00405372       0.00425449
Sn       5.01739153       0.51298528       8.55008234      -0.00225012       0.00060123       0.00042695
Sn       5.13549726       2.97424687       6.21399316      -0.00263136      -0.00293082      -0.00344320
12
Lattice="4.670359628042079 -0.015831755959730374 -0.6650419706404042 -0.07198149396927457 4.668248345030872 -0.6604069706448635 -0.19502161526264858 -0.2176800681621224 15.415781237432247" Properties=species:S:1:pos:R:3:forces:R:3 structure_index=9 total_energy=-47.13481521606445 stress="-0.01213634293526411 0.017834490165114403 -0.0011940619442611933 0.017834486439824104 -0.015500222332775593 -0.001843160716816783 -0.0011940565891563892 -0.0018431851640343666 0.013047125190496445" pbc="T T T"
Sn       4.17559398       0.62665871       6.99307770       0.01108514      -0.00143600       0.00843523
Sn       1.50079261       0.26814026       4.86411827       0.00146005       0.01035876       0.01672189
Sn       1.12057650       2.24950388       2.08656896       0.00083942       0.00282205      -0.00869315
Sn       3.10676803       1.89637823      -0.69739828       0.00123178      -0.00301093      -0.00227719
Sn       2.52369490       3.65260850      11.93336751       0.00197827       0.00733845      -0.00866976
Sn       3.42330366       4.57917496       1.42173507      -0.00539644      -0.00244769      -0.00630294
Sn      -0.14805870       3.30842333       9.79560495      -0.01552744       0.00362488      -0.01012598
Sn       0.73587140       4.23511289      -0.71106348      -0.00164412       0.00141461       0.00890958
Sn       1.81069405       2.97283443       6.99952137       0.00182597      -0.00821553       0.00703644
Sn       2.21715953       0.96958564       9.81462993      -0.00161509       0.00008929      -0.02557613
Sn       3.79830339       2.60004326       4.19310234       0.00354894      -0.00138253       0.02327015
Sn       0.22344611       1.33480800      12.58976623       0.00221351      -0.00915537      -0.00272816
16
Lattice="6.85758084131104 -0.005767423637052568 3.2092350892775827 1.6319689985345724 7.188952039916624 1.9855448520707129 0.002960584724317776 0.0011300327686248784 8.982353752710784" Properties=species:S:1:pos:R:3:forces:R:3 structure_index=10 total_energy=-62.841339111328125 stress="-0.012969475239515305 0.004514837171882391 -0.0009122831979766488 0.00451484601944685 0.010976964607834816 0.011330217123031616 -0.0009122589835897088 0.011330217123031616 0.0008946913294494152" pbc="T T T"
Sn       0.69368532       0.47379359       5.15130489       0.00411091      -0.00405840       0.00306647
Sn       2.48701758       2.71272030      10.29491022       0.00828000       0.01185332       0.01274064
Sn       3.63610237       5.87568124       9.70986735      -0.00180856      -0.01626748      -0.01779461
Sn       4.44920876       0.01929809       9.65049078       0.00055561       0.00938190      -0.00662649
Sn       4.94745548       4.07810843       3.27349544      -0.01666363      -0.01626199      -0.02113342
Sn       2.96886095       6.76031691       3.93024364       0.00128685       0.00445068      -0.00008667
Sn       5.58736890       3.16239367       9.01204492      -0.00043376       0.01220939       0.01756354
Sn       6.24178097       2.27036013       5.81208934       0.00392704      -0.00453425      -0.00569134
Sn       7.38756718       5.41624613       5.19212389       0.00529486      -0.00509569       0.01563545
Sn       1.18485727       4.52447743       7.75719643       0.00228823      -0.00330281      -0.00619433
Sn       1.82893521       3.61107295       4.54094744       0.00319850       0.01000547      -0.00765256
Sn       6.90094751       1.37097482      11.57244190      -0.00590933       0.00488662       0.00354912
Sn       3.13572894       1.81877683       7.08847544       0.00388885       0.00330720      -0.00306512
Sn       4.28476729       4.95827282       6.46290020      -0.00175192       0.01096526       0.02134029
Sn       6.72864485       6.32694739       8.42448145      -0.00137008      -0.01893030      -0.01235013
Sn       3.79826776       0.92321598       3.86718894      -0.00489359       0.00139107       0.00669915
12
Lattice="4.643213896927591 0.0004539238195469774 0.00023325265004717913 -0.0004640541333497862 4.5995076944046795 -0.6722031669494393 0.003786355765567623 -0.015316455554456718 16.072153496697517" Properties=species:S:1:pos:R:3:forces:R:3 structure_index=11 total_energy=-47.023963928222656 stress="0.019344331696629524 8.262792107416317e-05 0.0006905425689183176 8.26024916023016e-05 0.017778439447283745 -0.00308228749781847 0.0006904682377353311 -0.0030823317356407642 0.01752890832722187" pbc="T T T"
Sn       2.12552799       0.01679700       2.08548987      -0.00152328      -0.01096432      -0.04554826
Sn       2.11409088       3.42928641       9.35211699      -0.00227969       0.00944498       0.04742282
Sn       4.43293644       1.13470729       9.70574076       0.00449318       0.00338486       0.04340566
Sn       4.44065837       0.38461916       4.60956914      -0.00233816       0.01234152       0.04557720
Sn       4.44031892       3.06347889       6.81084634       0.00042781      -0.00943030      -0.03262825
Sn       4.43674264       3.79713738      11.90188527      -0.00098906       0.00127809       0.00293263
Sn       2.12632652       1.93678147      15.28896776       0.00345529      -0.00804660      -0.03239990
Sn       2.12057584       0.75735312       7.12719440      -0.00300023      -0.00066225      -0.02446396
Sn       4.44645523       2.30718464       1.71672985      -0.00097941       0.00123578      -0.03645284
Sn       2.11524553       2.69041153       4.28281697       0.00538190       0.00088044       0.04279401
Sn       2.11374683       1.49438469      12.21311788       0.00196451       0.00323300       0.02918223
Sn       4.45174778       4.23573481      14.97021529      -0.00461287      -0.00269519      -0.03982132
11
Lattice="4.711258641323028 0.0009857109607561716 0.0005197436877117695 -0.0004965343333760511 4.712475033422899 -0.00010847213811199012 0.001992053738759331 0.01005114565392939 14.430929737520918" Properties=species:S:1:pos:R:3:forces:R:3 structure_index=12 total_energy=-43.09198760986328 stress="-0.01520712673664093 0.0016245663864538074 0.0010460190242156386 0.0016245947917923331 -0.01223048660904169 0.0038388066459447145 0.0010460460325703025 0.003838813165202737 -0.01596860960125923" pbc="T T T"
Sn       3.30138451       1.85867755      11.88847251       0.00033799       0.00010205       0.01159801
Sn       3.30127582       4.21116402       9.35600675      -0.00155319       0.00014375       0.03645978
Sn       0.94352373       1.85101486       4.30513838       0.00103805      -0.00430905       0.04197299
Sn       3.30031576       4.20375208       4.39308912      -0.00162222       0.00417813      -0.03824054
Sn       0.94425813       1.85447698       9.41755694       0.00162849       0.00063581      -0.02548529
Sn       0.94658004       4.21527966      11.87463182      -0.00083431      -0.00151433       0.02678725
Sn       3.30231157       4.21525561      14.08713932      -0.00071497      -0.00163660      -0.00301624
Sn       0.94364544       4.20957578       6.85798951       0.00072607      -0.00232224       0.00576500
Sn       3.29982623       1.85117096       6.88609274      -0.00019337       0.00222024      -0.01344609
Sn       3.29821862       1.84715936       1.86413945       0.00090333       0.00059706      -0.02696171
Sn       0.94348313       4.20147533       1.85415057       0.00028414       0.00190518      -0.01543318
5
Lattice="4.344682260272698 0.0055012381480428925 1.1250531348392878 2.0492751402357583 3.8398642000198904 1.1195231447113452 0.08320757399828789 0.05478108828006584 8.843203388066481" Properties=species:S:1:pos:R:3:forces:R:3 structure_index=13 total_energy=-19.67851448059082 stress="-0.04668951779603958 0.0037639818619936705 -0.015941426157951355 0.0037639420479536057 -0.04791297763586044 -0.009214040823280811 -0.015941467136144638 -0.009214011952280998 0.02128261886537075" pbc="T T T"
Sn       0.34255842       0.43707057       0.29804865       0.00033150      -0.00022518      -0.00436772
Sn       2.96632641       2.01870290       8.27051260       0.00070379       0.00026113      -0.00361000
Sn       4.19592260       2.75512585       3.41049268      -0.00020102       0.00004803       0.00048080
Sn       5.50794091       3.54613608       7.39437013      -0.00003477       0.00001154       0.00372600
Sn       1.65505439       1.22784810       4.27984502      -0.00079951      -0.00009552       0.00377092
4
Lattice="4.324301768879357 -0.0003318903766726288 0.00017583934360851684 0.001089468597481154 5.072117385593837 -1.8169078959194425 0.0006531808416169114 -0.037612871769203596 5.4019352770773175" Properties=species:S:1:pos:R:3:forces:R:3 structure_index=14 total_energy=-15.739803314208984 stress="0.04125307872891426 -0.0007806338835507631 0.0004619861429091543 -0.0007806285284459591 -0.0391559936106205 -0.015902023762464523 0.00046201233635656536 -0.015901925042271614 -0.03786579519510269" pbc="T T T"
Sn       3.29906914       0.33398217       3.10435444      -0.00439235      -0.00295207       0.00037311
Sn       1.13411501       4.12950091       3.08543143       0.00334809      -0.00537412       0.01215770
Sn       3.29922618       2.88502465      -0.50365851      -0.00376804       0.00454831      -0.00188579
Sn       1.13241542       1.60700667       1.30477973       0.00481230       0.00377788      -0.01064502
12
Lattice="4.231060561462226 -0.000823162242435413 -0.004496704841780133 -2.117863041257652 3.6639216592592 0.004303574669725779 0.013020495069148806 -0.009399943323818065 22.728552447308722" Properties=species:S:1:pos:R:3:forces:R:3 structure_index=15 total_energy=-47.22825622558594 stress="-0.006612209137529135 -0.001371242105960846 5.0519614887889475e-05 -0.001371237332932651 -0.00790215004235506 -0.0001382697228109464 5.051615880802274e-05 -0.0001381884067086503 -0.015329006128013134" pbc="T T T"
Sn       0.45761930       2.89776876      14.76025008      -0.00295987      -0.00349727      -0.02233090
Sn       2.56869879       1.67767934      10.95742774      -0.00162450       0.00368658      -0.00601571
Sn       2.57559583       1.66855898      16.63534598      -0.00636430       0.01204811       0.02874996
Sn       0.44111779       0.46962758       1.49880209       0.00010983      -0.00026442       0.02372319
Sn       0.44905490       0.46559963       7.16609129      -0.00293765      -0.00112990       0.01704438
Sn       0.44632980       2.90536535       9.05608704       0.00443029      -0.00210837       0.02579074
Sn       0.45563371       0.45542598      12.84628129       0.00001629       0.00065399       0.00891820
Sn       0.43943673       2.91265634       3.40889718       0.00376320      -0.00245507      -0.02297926
Sn       0.45484118       0.45647880      18.54598363       0.00279601      -0.00192665       0.00354555
Sn       0.45283789       2.90025744      20.45163582       0.00070042      -0.00115262      -0.01340988
Sn       2.56673313       1.68209590      22.35281047       0.00337216      -0.00326375      -0.02855710
Sn       2.56053243       1.68854253       5.28967525      -0.00130187      -0.00059064      -0.01447918
12
Lattice="4.215462986370568 0.001884997674971439 -0.0024051215963504704 -2.1076832293010215 3.6359390306111945 -0.41207847474502607 0.01243414713018856 0.12793138157605963 22.929297758512018" Properties=species:S:1:pos:R:3:forces:R:3 structure_index=16 total_energy=-47.21746063232422 stress="-0.016556961461901665 -0.0003657267661765218 -0.0007620361866429448 -0.0003657162596937269 -0.019419385120272636 0.0024096043780446053 -0.0007620094693265855 0.002409624867141247 -0.0038494488690048456" pbc="T T T"
Sn      -0.06419533       1.67194826       5.18625885       0.01163480      -0.00457109      -0.02147404
Sn       2.05077365       0.66630469       7.16904551      -0.00482148       0.00172852       0.01565747
Sn       2.05049918       3.30301877       8.79445362      -0.00171368       0.00080333      -0.00382262
Sn       2.06784417       1.93571365      18.51705461      -0.00451350       0.00314563       0.03886156
Sn       2.05104859       1.30284722      12.84401582       0.00426279      -0.00300510      -0.01288836
Sn      -0.05739812       2.30026468      10.81197532       0.00230706       0.00278831       0.01171006
Sn      -0.04851848       2.93140332      16.46970591       0.00345571       0.00279150      -0.01941539
Sn      -0.03782851       0.93035091      20.51795772      -0.00324546       0.00316396      -0.01743082
Sn      -0.05085612       0.30149102      14.86545598      -0.00050909      -0.00306949       0.01708351
Sn       2.07077542       2.36677491      22.28730838       0.00005240      -0.00192216      -0.00429367
Sn       2.05593650       0.03507919       1.53920747      -0.00991066      -0.00186575       0.00275093
Sn       2.04994538       2.66646567       3.10886510       0.00300111       0.00001235      -0.00673861
7
Lattice="5.214212098264688 0.013197414612676026 2.5085980710762605 1.9314591936583696 6.043868097554364 2.6598591755739625 0.04067071331569365 0.0174909873590951 6.613940353790666" Properties=species:S:1:pos:R:3:forces:R:3 structure_index=17 total_energy=-27.4096736907959 stress="-0.01717645302414894 0.00611548637971282 0.003872056258842349 0.006115658674389124 -0.03025416098535061 -0.007701314520090818 0.00387221435084939 -0.007701341062784195 -0.0019720641430467367" pbc="T T T"
Sn       3.15084860       4.74514396       7.86963095       0.01531367      -0.01636775      -0.03617869
Sn       5.34209003       0.80929447       3.29558736      -0.00012207      -0.00086559      -0.00125196
Sn       4.29173625       2.91915357       5.48619964      -0.01798911       0.01548618       0.03670666
Sn       2.09159946       0.88437551       3.38888353      -0.00389608       0.04303135       0.00859299
Sn       3.41812416       0.73594457       7.30764063       0.00564097      -0.03956537      -0.01029365
Sn       1.75316134       3.78631480       4.08428777       0.01683236       0.00717489      -0.03658723
Sn       5.68954184       3.87895078       9.26970381      -0.01577972      -0.00889374       0.03901187
6
Lattice="3.3886950947445045 -0.00030425734729674496 0.0003839638677361785 0.0006937002160679625 5.473510071895518 -1.8421884966569673 -0.0007778783299822248 -0.003000122296967729 9.140063870164914" Properties=species:S:1:pos:R:3:forces:R:3 structure_index=18 total_energy=-23.53997039794922 stress="-0.01986333541572094 0.00013173616025596857 0.0001410123222740367 0.00013173527258913964 0.0031929081305861473 0.0031120399944484234 0.00014101320994086564 0.003112040227279067 -0.0033024572767317295" pbc="T T T"
Sn       2.19141590       1.06628745      -0.14889522       0.00012848      -0.00287504      -0.00076735
Sn       0.49401848       0.14545050       6.25140731       0.00272500      -0.00041078       0.00237646
Sn       0.49898736       2.01458533       2.57679866      -0.00023352       0.00020718      -0.00061698
Sn       2.19513256       4.74995868       1.65788169      -0.00225314       0.00231723      -0.00392578
Sn       2.19186967       2.88174131       5.32962289      -0.00090757      -0.00071363       0.00148985
Sn       0.49766254       3.80030601      -1.07255539       0.00054076       0.00147504       0.00144378
18
Lattice="6.864845301761365 -0.0009619482521946052 -0.8162191983227651 -1.5016121062218437 6.679821875864752 -0.8550379261599493 0.0020503984649840163 0.01150509974506849 11.607552405751804" Properties=species:S:1:pos:R:3:forces:R:3 structure_index=19 total_energy=-70.82807922363281 stress="0.005241569597274065 0.0023491927422583103 -0.0034707013983279467 0.00234919972717762 0.013097326271235943 0.005014281254261732 -0.003470726078376174 0.00501427985727787 -0.006090594921261072" pbc="T T T"
Sn       3.70263986       1.48497355       2.36106412       0.00279721      -0.00123003       0.00245002
Sn       3.49089692       4.07737482       0.69797638       0.00570556       0.00738859      -0.00694132
Sn       5.68725229       1.12065329       7.33840540       0.00514766       0.01004089       0.00042151
Sn       0.41403410       5.94648100       9.80074397       0.00035663      -0.00401042       0.00014482
Sn       0.60950199       3.33624105      -0.13907235       0.00356387       0.00571167       0.00168956
Sn       1.50623799       4.46190200       7.31821744       0.00751625      -0.00764408       0.00799644
Sn       5.28527250       6.31616373       4.00582426      -0.00498852      -0.00084354      -0.00501498
Sn       1.71556790       1.86087408       8.99132718      -0.00454374       0.00247284      -0.00186728
Sn       2.61246603       2.96951809       4.84487754      -0.00524482       0.00092983      -0.00416799
Sn       2.39143293       5.57003386       3.17150693       0.00889507      -0.00299294       0.00849801
Sn       5.49407356       3.72444999       5.67391247      -0.00488668      -0.00605387      -0.00361379
Sn       0.82284564       0.74273049       1.52713266      -0.00673987      -0.00108877       0.00226078