phonopy:
  version: "2.37.1"
  frequency_unit_conversion_factor: 15.633302
  symmetry_tolerance: 1.00000e-05

space_group:
  type: "P1"
  number: 1
  Hall_symbol: "P 1"

primitive_matrix:
- [ -1.000000000000000, -0.000000000000000, -1.000000000000000 ]
- [  0.000000000000000,  1.000000000000000,  0.000000000000000 ]
- [  0.000000000000000,  0.000000000000000, -1.000000000000000 ]

supercell_matrix:
- [   3,   0,   0 ]
- [   0,   2,   0 ]
- [   0,   0,   1 ]

primitive_cell:
  lattice:
  - [    -4.444978234271970,     0.000000000000000,     0.000000000000000 ] # a
  - [     0.026721789874603,     6.402720717538604,     0.000000000000000 ] # b
  - [     0.017722578560250,    -0.625624749881879,    -9.384296858031757 ] # c
  points:
  - symbol: Li # 1
    coordinates: [  0.648618587320851,  0.049425565643495,  0.041870304046404 ]
    mass: 6.940000
  - symbol: Li # 2
    coordinates: [  0.652417084677412,  0.785469808146410,  0.590764411014867 ]
    mass: 6.940000
  - symbol: Li # 3
    coordinates: [  0.148813779217692,  0.049335688178875,  0.541890186886901 ]
    mass: 6.940000
  - symbol: Li # 4
    coordinates: [  0.642212629264806,  0.228715060348993,  0.758917622145358 ]
    mass: 6.940000
  - symbol: Li # 5
    coordinates: [  0.143747782750433,  0.229202568018939,  0.259180818815708 ]
    mass: 6.940000
  - symbol: Li # 6
    coordinates: [  0.152180381477406,  0.785822556089284,  0.090857536437147 ]
    mass: 6.940000
  - symbol: Li # 7
    coordinates: [  0.651026720055527,  0.512406566394305,  0.169163316860428 ]
    mass: 6.940000
  - symbol: Li # 8
    coordinates: [  0.149550316904252,  0.511941430078277,  0.668984075378084 ]
    mass: 6.940000
  - symbol: Ga # 9
    coordinates: [  0.149195630165904,  0.933404312230255,  0.808134742742011 ]
    mass: 69.723000
  - symbol: Ga # 10
    coordinates: [  0.651348611312220,  0.933668831892034,  0.308152698540406 ]
    mass: 69.723000
  - symbol: Sn # 11
    coordinates: [  0.148673252961993,  0.313521207560640,  0.966262450086500 ]
    mass: 118.710000
  - symbol: Sn # 12
    coordinates: [  0.148865029329023,  0.663853658750424,  0.378006608419836 ]
    mass: 118.710000
  - symbol: Sn # 13
    coordinates: [  0.647054779378984,  0.663342849289457,  0.878102566148181 ]
    mass: 118.710000
  - symbol: Sn # 14
    coordinates: [  0.649276845472436,  0.313720798048235,  0.466252306891209 ]
    mass: 118.710000
  reciprocal_lattice: # without 2pi
  - [    -0.224972980135141,     0.000938925960985,    -0.000487465038999 ] # a*
  - [    -0.000000000000000,     0.156183604457517,    -0.010412322835968 ] # b*
  - [    -0.000000000000000,     0.000000000000000,    -0.106560993873945 ] # c*

unit_cell:
  lattice:
  - [     4.444978234271970,     0.000000000000000,     0.000000000000000 ] # a
  - [     0.026721789874603,     6.402720717538602,     0.000000000000000 ] # b
  - [    -4.462700812832219,     0.625624749881879,     9.384296858031757 ] # c
  points:
  - symbol: Li # 1
    coordinates: [  0.309511108632745,  0.049425565643495,  0.958129695953596 ]
    mass: 6.940000
    reduced_to: 1
  - symbol: Li # 2
    coordinates: [  0.756818504307722,  0.785469808146410,  0.409235588985133 ]
    mass: 6.940000
    reduced_to: 2
  - symbol: Li # 3
    coordinates: [  0.309296033895407,  0.049335688178875,  0.458109813113098 ]
    mass: 6.940000
    reduced_to: 3
  - symbol: Li # 4
    coordinates: [  0.598869748589836,  0.228715060348993,  0.241082377854642 ]
    mass: 6.940000
    reduced_to: 4
  - symbol: Li # 5
    coordinates: [  0.597071398433859,  0.229202568018940,  0.740819181184292 ]
    mass: 6.940000
    reduced_to: 5
  - symbol: Li # 6
    coordinates: [  0.756962082085447,  0.785822556089284,  0.909142463562853 ]
    mass: 6.940000
    reduced_to: 6
  - symbol: Li # 7
    coordinates: [  0.179809963084045,  0.512406566394305,  0.830836683139572 ]
    mass: 6.940000
    reduced_to: 7
  - symbol: Li # 8
    coordinates: [  0.181465607717663,  0.511941430078277,  0.331015924621916 ]
    mass: 6.940000
    reduced_to: 8
  - symbol: Ga # 9
    coordinates: [  0.042669627092085,  0.933404312230255,  0.191865257257989 ]
    mass: 69.723000
    reduced_to: 9
  - symbol: Ga # 10
    coordinates: [  0.040498690147374,  0.933668831892035,  0.691847301459594 ]
    mass: 69.723000
    reduced_to: 10
  - symbol: Sn # 11
    coordinates: [  0.885064296951507,  0.313521207560640,  0.033737549913500 ]
    mass: 118.710000
    reduced_to: 11
  - symbol: Sn # 12
    coordinates: [  0.473128362251141,  0.663853658750424,  0.621993391580164 ]
    mass: 118.710000
    reduced_to: 12
  - symbol: Sn # 13
    coordinates: [  0.474842654472835,  0.663342849289457,  0.121897433851819 ]
    mass: 118.710000
    reduced_to: 13
  - symbol: Sn # 14
    coordinates: [  0.884470847636355,  0.313720798048236,  0.533747693108791 ]
    mass: 118.710000
    reduced_to: 14

supercell:
  lattice:
  - [    13.334934702815909,     0.000000000000000,     0.000000000000000 ] # a
  - [     0.053443579749207,    12.805441435077205,     0.000000000000000 ] # b
  - [    -4.462700812832219,     0.625624749881879,     9.384296858031757 ] # c
  points:
  - symbol: Li # 1
    coordinates: [  0.103170369544248,  0.024712782821748,  0.958129695953596 ]
    mass: 6.940000
    reduced_to: 1
  - symbol: Li # 2
    coordinates: [  0.436503702877582,  0.024712782821748,  0.958129695953596 ]
    mass: 6.940000
    reduced_to: 1
  - symbol: Li # 3
    coordinates: [  0.769837036210915,  0.024712782821748,  0.958129695953596 ]
    mass: 6.940000
    reduced_to: 1
  - symbol: Li # 4
    coordinates: [  0.103170369544248,  0.524712782821748,  0.958129695953596 ]
    mass: 6.940000
    reduced_to: 1
  - symbol: Li # 5
    coordinates: [  0.436503702877582,  0.524712782821748,  0.958129695953596 ]
    mass: 6.940000
    reduced_to: 1
  - symbol: Li # 6
    coordinates: [  0.769837036210915,  0.524712782821748,  0.958129695953596 ]
    mass: 6.940000
    reduced_to: 1
  - symbol: Li # 7
    coordinates: [  0.252272834769241,  0.392734904073205,  0.409235588985133 ]
    mass: 6.940000
    reduced_to: 7
  - symbol: Li # 8
    coordinates: [  0.585606168102574,  0.392734904073205,  0.409235588985133 ]
    mass: 6.940000
    reduced_to: 7
  - symbol: Li # 9
    coordinates: [  0.918939501435907,  0.392734904073205,  0.409235588985133 ]
    mass: 6.940000
    reduced_to: 7
  - symbol: Li # 10
    coordinates: [  0.252272834769241,  0.892734904073205,  0.409235588985133 ]
    mass: 6.940000
    reduced_to: 7
  - symbol: Li # 11
    coordinates: [  0.585606168102574,  0.892734904073205,  0.409235588985133 ]
    mass: 6.940000
    reduced_to: 7
  - symbol: Li # 12
    coordinates: [  0.918939501435907,  0.892734904073205,  0.409235588985133 ]
    mass: 6.940000
    reduced_to: 7
  - symbol: Li # 13
    coordinates: [  0.103098677965136,  0.024667844089437,  0.458109813113098 ]
    mass: 6.940000
    reduced_to: 13
  - symbol: Li # 14
    coordinates: [  0.436432011298469,  0.024667844089437,  0.458109813113098 ]
    mass: 6.940000
    reduced_to: 13
  - symbol: Li # 15
    coordinates: [  0.769765344631802,  0.024667844089437,  0.458109813113098 ]
    mass: 6.940000
    reduced_to: 13
  - symbol: Li # 16
    coordinates: [  0.103098677965136,  0.524667844089437,  0.458109813113098 ]
    mass: 6.940000
    reduced_to: 13
  - symbol: Li # 17
    coordinates: [  0.436432011298469,  0.524667844089437,  0.458109813113098 ]
    mass: 6.940000
    reduced_to: 13
  - symbol: Li # 18
    coordinates: [  0.769765344631802,  0.524667844089437,  0.458109813113098 ]
    mass: 6.940000
    reduced_to: 13
  - symbol: Li # 19
    coordinates: [  0.199623249529945,  0.114357530174497,  0.241082377854642 ]
    mass: 6.940000
    reduced_to: 19
  - symbol: Li # 20
    coordinates: [  0.532956582863279,  0.114357530174497,  0.241082377854642 ]
    mass: 6.940000
    reduced_to: 19
  - symbol: Li # 21
    coordinates: [  0.866289916196612,  0.114357530174497,  0.241082377854642 ]
    mass: 6.940000
    reduced_to: 19
  - symbol: Li # 22
    coordinates: [  0.199623249529945,  0.614357530174497,  0.241082377854642 ]
    mass: 6.940000
    reduced_to: 19
  - symbol: Li # 23
    coordinates: [  0.532956582863279,  0.614357530174497,  0.241082377854642 ]
    mass: 6.940000
    reduced_to: 19
  - symbol: Li # 24
    coordinates: [  0.866289916196612,  0.614357530174497,  0.241082377854642 ]
    mass: 6.940000
    reduced_to: 19
  - symbol: Li # 25
    coordinates: [  0.199023799477953,  0.114601284009470,  0.740819181184292 ]
    mass: 6.940000
    reduced_to: 25
  - symbol: Li # 26
    coordinates: [  0.532357132811286,  0.114601284009470,  0.740819181184292 ]
    mass: 6.940000
    reduced_to: 25
  - symbol: Li # 27
    coordinates: [  0.865690466144620,  0.114601284009470,  0.740819181184292 ]
    mass: 6.940000
    reduced_to: 25
  - symbol: Li # 28
    coordinates: [  0.199023799477953,  0.614601284009470,  0.740819181184292 ]
    mass: 6.940000
    reduced_to: 25
  - symbol: Li # 29
    coordinates: [  0.532357132811286,  0.614601284009470,  0.740819181184292 ]
    mass: 6.940000
    reduced_to: 25
  - symbol: Li # 30
    coordinates: [  0.865690466144620,  0.614601284009470,  0.740819181184292 ]
    mass: 6.940000
    reduced_to: 25
  - symbol: Li # 31
    coordinates: [  0.252320694028482,  0.392911278044642,  0.909142463562853 ]
    mass: 6.940000
    reduced_to: 31
  - symbol: Li # 32
    coordinates: [  0.585654027361816,  0.392911278044642,  0.909142463562853 ]
    mass: 6.940000
    reduced_to: 31
  - symbol: Li # 33
    coordinates: [  0.918987360695149,  0.392911278044642,  0.909142463562853 ]
    mass: 6.940000
    reduced_to: 31
  - symbol: Li # 34
    coordinates: [  0.252320694028482,  0.892911278044642,  0.909142463562853 ]
    mass: 6.940000
    reduced_to: 31
  - symbol: Li # 35
    coordinates: [  0.585654027361816,  0.892911278044642,  0.909142463562853 ]
    mass: 6.940000
    reduced_to: 31
  - symbol: Li # 36
    coordinates: [  0.918987360695149,  0.892911278044642,  0.909142463562853 ]
    mass: 6.940000
    reduced_to: 31
  - symbol: Li # 37
    coordinates: [  0.059936654361348,  0.256203283197153,  0.830836683139572 ]
    mass: 6.940000
    reduced_to: 37
  - symbol: Li # 38
    coordinates: [  0.393269987694682,  0.256203283197153,  0.830836683139572 ]
    mass: 6.940000
    reduced_to: 37
  - symbol: Li # 39
    coordinates: [  0.726603321028015,  0.256203283197153,  0.830836683139572 ]
    mass: 6.940000
    reduced_to: 37
  - symbol: Li # 40
    coordinates: [  0.059936654361348,  0.756203283197153,  0.830836683139572 ]
    mass: 6.940000
    reduced_to: 37
  - symbol: Li # 41
    coordinates: [  0.393269987694682,  0.756203283197153,  0.830836683139572 ]
    mass: 6.940000
    reduced_to: 37
  - symbol: Li # 42
    coordinates: [  0.726603321028015,  0.756203283197153,  0.830836683139572 ]
    mass: 6.940000
    reduced_to: 37
  - symbol: Li # 43
    coordinates: [  0.060488535905888,  0.255970715039138,  0.331015924621916 ]
    mass: 6.940000
    reduced_to: 43
  - symbol: Li # 44
    coordinates: [  0.393821869239221,  0.255970715039138,  0.331015924621916 ]
    mass: 6.940000
    reduced_to: 43
  - symbol: Li # 45
    coordinates: [  0.727155202572555,  0.255970715039138,  0.331015924621916 ]
    mass: 6.940000
    reduced_to: 43
  - symbol: Li # 46
    coordinates: [  0.060488535905888,  0.755970715039138,  0.331015924621916 ]
    mass: 6.940000
    reduced_to: 43
  - symbol: Li # 47
    coordinates: [  0.393821869239221,  0.755970715039138,  0.331015924621916 ]
    mass: 6.940000
    reduced_to: 43
  - symbol: Li # 48
    coordinates: [  0.727155202572555,  0.755970715039138,  0.331015924621916 ]
    mass: 6.940000
    reduced_to: 43
  - symbol: Ga # 49
    coordinates: [  0.014223209030695,  0.466702156115128,  0.191865257257989 ]
    mass: 69.723000
    reduced_to: 49
  - symbol: Ga # 50
    coordinates: [  0.347556542364028,  0.466702156115128,  0.191865257257989 ]
    mass: 69.723000
    reduced_to: 49
  - symbol: Ga # 51
    coordinates: [  0.680889875697361,  0.466702156115128,  0.191865257257989 ]
    mass: 69.723000
    reduced_to: 49
  - symbol: Ga # 52
    coordinates: [  0.014223209030695,  0.966702156115128,  0.191865257257989 ]
    mass: 69.723000
    reduced_to: 49
  - symbol: Ga # 53
    coordinates: [  0.347556542364028,  0.966702156115128,  0.191865257257989 ]
    mass: 69.723000
    reduced_to: 49
  - symbol: Ga # 54
    coordinates: [  0.680889875697361,  0.966702156115128,  0.191865257257989 ]
    mass: 69.723000
    reduced_to: 49
  - symbol: Ga # 55
    coordinates: [  0.013499563382458,  0.466834415946017,  0.691847301459594 ]
    mass: 69.723000
    reduced_to: 55
  - symbol: Ga # 56
    coordinates: [  0.346832896715791,  0.466834415946017,  0.691847301459594 ]
    mass: 69.723000
    reduced_to: 55
  - symbol: Ga # 57
    coordinates: [  0.680166230049125,  0.466834415946017,  0.691847301459594 ]
    mass: 69.723000
    reduced_to: 55
  - symbol: Ga # 58
    coordinates: [  0.013499563382458,  0.966834415946017,  0.691847301459594 ]
    mass: 69.723000
    reduced_to: 55
  - symbol: Ga # 59
    coordinates: [  0.346832896715791,  0.966834415946017,  0.691847301459594 ]
    mass: 69.723000
    reduced_to: 55
  - symbol: Ga # 60
    coordinates: [  0.680166230049125,  0.966834415946017,  0.691847301459594 ]
    mass: 69.723000
    reduced_to: 55
  - symbol: Sn # 61
    coordinates: [  0.295021432317169,  0.156760603780320,  0.033737549913500 ]
    mass: 118.710000
    reduced_to: 61
  - symbol: Sn # 62
    coordinates: [  0.628354765650502,  0.156760603780320,  0.033737549913500 ]
    mass: 118.710000
    reduced_to: 61
  - symbol: Sn # 63
    coordinates: [  0.961688098983836,  0.156760603780320,  0.033737549913500 ]
    mass: 118.710000
    reduced_to: 61
  - symbol: Sn # 64
    coordinates: [  0.295021432317169,  0.656760603780320,  0.033737549913500 ]
    mass: 118.710000
    reduced_to: 61
  - symbol: Sn # 65
    coordinates: [  0.628354765650502,  0.656760603780320,  0.033737549913500 ]
    mass: 118.710000
    reduced_to: 61
  - symbol: Sn # 66
    coordinates: [  0.961688098983836,  0.656760603780320,  0.033737549913500 ]
    mass: 118.710000
    reduced_to: 61
  - symbol: Sn # 67
    coordinates: [  0.157709454083714,  0.331926829375212,  0.621993391580164 ]
    mass: 118.710000
    reduced_to: 67
  - symbol: Sn # 68
    coordinates: [  0.491042787417047,  0.331926829375212,  0.621993391580164 ]
    mass: 118.710000
    reduced_to: 67
  - symbol: Sn # 69
    coordinates: [  0.824376120750380,  0.331926829375212,  0.621993391580164 ]
    mass: 118.710000
    reduced_to: 67
  - symbol: Sn # 70
    coordinates: [  0.157709454083714,  0.831926829375212,  0.621993391580164 ]
    mass: 118.710000
    reduced_to: 67
  - symbol: Sn # 71
    coordinates: [  0.491042787417047,  0.831926829375212,  0.621993391580164 ]
    mass: 118.710000
    reduced_to: 67
  - symbol: Sn # 72
    coordinates: [  0.824376120750380,  0.831926829375212,  0.621993391580164 ]
    mass: 118.710000
    reduced_to: 67
  - symbol: Sn # 73
    coordinates: [  0.158280884824278,  0.331671424644728,  0.121897433851819 ]
    mass: 118.710000
    reduced_to: 73
  - symbol: Sn # 74
    coordinates: [  0.491614218157612,  0.331671424644728,  0.121897433851819 ]
    mass: 118.710000
    reduced_to: 73
  - symbol: Sn # 75
    coordinates: [  0.824947551490945,  0.331671424644728,  0.121897433851819 ]
    mass: 118.710000
    reduced_to: 73
  - symbol: Sn # 76
    coordinates: [  0.158280884824278,  0.831671424644728,  0.121897433851819 ]
    mass: 118.710000
    reduced_to: 73
  - symbol: Sn # 77
    coordinates: [  0.491614218157612,  0.831671424644728,  0.121897433851819 ]
    mass: 118.710000
    reduced_to: 73
  - symbol: Sn # 78
    coordinates: [  0.824947551490945,  0.831671424644728,  0.121897433851819 ]
    mass: 118.710000
    reduced_to: 73
  - symbol: Sn # 79
    coordinates: [  0.294823615878785,  0.156860399024118,  0.533747693108791 ]
    mass: 118.710000
    reduced_to: 79
  - symbol: Sn # 80
    coordinates: [  0.628156949212118,  0.156860399024118,  0.533747693108791 ]
    mass: 118.710000
    reduced_to: 79
  - symbol: Sn # 81
    coordinates: [  0.961490282545452,  0.156860399024118,  0.533747693108791 ]
    mass: 118.710000
    reduced_to: 79
  - symbol: Sn # 82
    coordinates: [  0.294823615878785,  0.656860399024118,  0.533747693108791 ]
    mass: 118.710000
    reduced_to: 79
  - symbol: Sn # 83
    coordinates: [  0.628156949212118,  0.656860399024118,  0.533747693108791 ]
    mass: 118.710000
    reduced_to: 79
  - symbol: Sn # 84
    coordinates: [  0.961490282545452,  0.656860399024118,  0.533747693108791 ]
    mass: 118.710000
    reduced_to: 79

displacements:
- atom:    1
  displacement:
    [   0.0100000000000000,  0.0000000000000000,  0.0000000000000000 ]
  forces:
  - [  -0.0301906839013100,  0.1035300567746162,  0.0490670502185822 ]
  - [  -0.0111863296478987,  0.1030270606279373,  0.0492925196886063 ]
  - [  -0.0111873392015696,  0.1034657508134842,  0.0492717213928699 ]
  - [  -0.0108962971717119,  0.1032405868172646,  0.0492840223014355 ]
  - [  -0.0110015673562884,  0.1032385677099228,  0.0492326952517033 ]
  - [  -0.0110006574541330,  0.1032687872648239,  0.0493314303457737 ]
  - [   0.0228176638484001, -0.0676184147596359, -0.0618364289402962 ]
  - [   0.0227657370269299, -0.0676445662975311, -0.0617896765470505 ]
  - [   0.0227605681866407, -0.0676026493310928, -0.0618663206696510 ]
  - [   0.0231299530714750, -0.0676354467868805, -0.0618334934115410 ]
  - [   0.0228367522358894, -0.0676316544413567, -0.0618517361581326 ]
  - [   0.0229320656508207, -0.0676070302724838, -0.0618195980787277 ]
  - [  -0.0103944363072515,  0.1049173548817635,  0.0482548922300339 ]
  - [  -0.0103301508352160,  0.1046985536813736,  0.0478847660124302 ]
  - [  -0.0103339795023203,  0.1047928258776665,  0.0479942262172699 ]
  - [  -0.0102663971483707,  0.1047926992177963,  0.0480664335191250 ]
  - [  -0.0102896401658654,  0.1047721356153488,  0.0480177402496338 ]
  - [  -0.0102891977876425,  0.1048327609896660,  0.0480401180684566 ]
  - [  -0.0432099923491478, -0.1420990973711014,  0.0217499583959579 ]
  - [  -0.0431136116385460, -0.1422636210918427,  0.0219024196267128 ]
  - [  -0.0430775433778763, -0.1419908106327057,  0.0215233638882637 ]
  - [  -0.0431291833519936, -0.1421272158622742,  0.0217358544468880 ]
  - [  -0.0431868433952332, -0.1421766579151154,  0.0217262953519821 ]
  - [  -0.0431966707110405, -0.1420747637748718,  0.0217397883534431 ]
  - [  -0.0379314348101616, -0.1425133943557739,  0.0239957273006439 ]
  - [  -0.0387277081608772, -0.1426547467708588,  0.0248750410974026 ]
  - [  -0.0378618687391281, -0.1428564488887787,  0.0258747413754463 ]
  - [  -0.0387580394744873, -0.1426748931407928,  0.0249042436480522 ]
  - [  -0.0387514382600784, -0.1426588594913483,  0.0248665586113930 ]
  - [  -0.0387575142085552, -0.1426500976085663,  0.0248324535787106 ]
  - [   0.0232696644961834, -0.0670882686972618, -0.0600908882915974 ]
  - [   0.0233144089579582, -0.0674327760934830, -0.0599759593605995 ]
  - [   0.0232781171798706, -0.0678150355815887, -0.0598336793482304 ]
  - [   0.0265603326261044, -0.0705369636416435, -0.0605092719197273 ]
  - [   0.0233989860862494, -0.0674374476075172, -0.0599741600453854 ]
  - [   0.0262854471802711, -0.0646766275167465, -0.0595046170055866 ]
  - [   0.0159844886511564, -0.0679144933819771, -0.0387796647846699 ]
  - [   0.0163758117705584, -0.0678226351737976, -0.0390748530626297 ]
  - [   0.0163849741220474, -0.0679921805858612, -0.0385425053536892 ]
  - [   0.0165500342845917, -0.0679075717926025, -0.0388089120388031 ]
  - [   0.0160122066736221, -0.0678289383649826, -0.0387976728379726 ]
  - [   0.0160067137330770, -0.0679881423711777, -0.0388304665684700 ]
  - [   0.0114535428583622, -0.0655940026044846, -0.0378770083189011 ]
  - [   0.0114485854282975, -0.0656200349330902, -0.0378052741289139 ]
  - [   0.0115416487678885, -0.0656063854694366, -0.0378103405237198 ]
  - [   0.0114890988916159, -0.0655927807092667, -0.0378395691514015 ]
  - [   0.0114790089428425, -0.0656132251024246, -0.0378253832459450 ]
  - [   0.0115348231047392, -0.0656032040715218, -0.0378184430301189 ]
  - [   0.0223665758967400, -0.1528128236532211,  0.0997329056262970 ]
  - [   0.0223667882382870, -0.1528372913599014,  0.0996019691228867 ]
  - [   0.0224165357649326, -0.1528476178646088,  0.0996585264801979 ]
  - [   0.0230973754078150, -0.1521925330162048,  0.0989904552698135 ]
  - [   0.0231281835585833, -0.1534530222415924,  0.1003666222095490 ]
  - [   0.0221903845667839, -0.1528274565935135,  0.0996748134493828 ]
  - [   0.0245218798518181, -0.1501379609107971,  0.0995682775974274 ]
  - [   0.0244519300758839, -0.1501538753509521,  0.0996038243174553 ]
  - [   0.0244547575712204, -0.1501315087080002,  0.0995421633124352 ]
  - [   0.0255637578666210, -0.1501685827970505,  0.0996112152934074 ]
  - [   0.0244082342833281, -0.1501921415328979,  0.0995323732495308 ]
  - [   0.0244172476232052, -0.1500942111015320,  0.0996358618140221 ]
  - [   0.0210711173713207,  0.2341211736202240, -0.0609612204134464 ]
  - [   0.0154721271246672,  0.2298827320337296, -0.0623708441853523 ]
  - [   0.0211062803864479,  0.2255614697933197, -0.0637934356927872 ]
  - [   0.0160998962819576,  0.2294504493474960, -0.0623400881886482 ]
  - [   0.0155896097421646,  0.2298646122217178, -0.0623752847313881 ]
  - [   0.0161052178591490,  0.2302751839160919, -0.0624038167297840 ]
  - [  -0.0245896484702826,  0.0936589539051056, -0.0110364258289337 ]
  - [  -0.0245889909565449,  0.0936911702156067, -0.0110826119780540 ]
  - [  -0.0245487466454506,  0.0936873927712440, -0.0111470781266689 ]
  - [  -0.0246449224650860,  0.0937251746654510, -0.0111124701797962 ]
  - [  -0.0246482491493225,  0.0936735421419144, -0.0110702831298113 ]
  - [  -0.0245717465877533,  0.0936627164483070, -0.0110303554683924 ]
  - [  -0.0274675618857145,  0.0978541523218155, -0.0087973996996880 ]
  - [  -0.0277190469205379,  0.0972709283232689, -0.0090858489274979 ]
  - [  -0.0278908703476191,  0.0985833629965782, -0.0084125325083733 ]
  - [  -0.0274668671190739,  0.0978828296065331, -0.0088263805955648 ]
  - [  -0.0270093847066164,  0.0978050976991653, -0.0087131019681692 ]
  - [  -0.0270346533507109,  0.0978874564170837, -0.0088644511997700 ]
  - [   0.0183838047087193,  0.2268186807632446, -0.0623641423881054 ]
  - [   0.0183680355548859,  0.2269319891929626, -0.0626072585582733 ]
  - [   0.0185430571436882,  0.2268863916397095, -0.0624482408165932 ]
  - [   0.0184687338769436,  0.2269431501626968, -0.0624709948897362 ]
  - [   0.0184563435614109,  0.2268181443214417, -0.0625013262033463 ]
  - [   0.0185906589031219,  0.2268861979246140, -0.0624714419245720 ]
- atom:    1
  displacement:
    [  -0.0100000000000000,  0.0000000000000000,  0.0000000000000000 ]
  forces:
  - [   0.0082581061869860,  0.1027866303920746,  0.0493600629270077 ]
  - [  -0.0107460590079427,  0.1034729778766632,  0.0492663457989693 ]
  - [  -0.0107471384108067,  0.1030327454209328,  0.0492861829698086 ]
  - [  -0.0110342204570770,  0.1032604724168777,  0.0492732599377632 ]
  - [  -0.0109318103641272,  0.1032687351107597,  0.0493248812854290 ]
  - [  -0.0109309479594231,  0.1032392680644989,  0.0492259897291660 ]
  - [   0.0227455683052540, -0.0676245465874672, -0.0618156641721725 ]
  - [   0.0227959901094437, -0.0675962418317795, -0.0618604458868504 ]
  - [   0.0228025745600462, -0.0676365941762924, -0.0617848373949528 ]
  - [   0.0224339179694653, -0.0676085799932480, -0.0618292093276978 ]
  - [   0.0227227993309498, -0.0676103979349136, -0.0618073642253876 ]
  - [   0.0226321294903755, -0.0676349550485611, -0.0618419349193573 ]
  - [  -0.0101672988384962,  0.1046837121248245,  0.0478326156735420 ]
  - [  -0.0102332970127463,  0.1049015372991562,  0.0482034534215927 ]
  - [  -0.0102311270311475,  0.1048050373792648,  0.0480891428887844 ]
  - [  -0.0102973887696862,  0.1048074364662170,  0.0480169057846069 ]
  - [  -0.0102741643786430,  0.1048275753855705,  0.0480665341019630 ]
  - [  -0.0102736223489046,  0.1047658026218414,  0.0480432733893394 ]
  - [  -0.0431742481887341, -0.1421595662832260,  0.0217076018452644 ]
  - [  -0.0432702936232090, -0.1419924795627594,  0.0215651839971542 ]
  - [  -0.0433110073208809, -0.1422658711671829,  0.0219443142414093 ]
  - [  -0.0432582013309002, -0.1421304345130920,  0.0217352584004402 ]
  - [  -0.0431996062397957, -0.1420770287513733,  0.0217396691441536 ]
  - [  -0.0431882478296757, -0.1421771347522736,  0.0217253044247627 ]
  - [  -0.0395646467804909, -0.1427971124649048,  0.0257170051336288 ]
  - [  -0.0387826934456825, -0.1426638364791870,  0.0248626694083214 ]
  - [  -0.0396629534661770, -0.1424572467803955,  0.0238368771970272 ]
  - [  -0.0387537032365799, -0.1426482796669006,  0.0248332768678665 ]
  - [  -0.0387597084045410, -0.1426631510257721,  0.0248690061271191 ]
  - [  -0.0387542024254799, -0.1426744461059570,  0.0249066501855850 ]
  - [   0.0233221873641014, -0.0677853077650070, -0.0598529800772667 ]
  - [   0.0232795048505068, -0.0674429014325142, -0.0599690414965153 ]
  - [   0.0233198069036007, -0.0670594871044159, -0.0601102709770203 ]
  - [   0.0200916007161140, -0.0644096806645393, -0.0594444051384926 ]
  - [   0.0231972150504589, -0.0674354583024979, -0.0599678121507168 ]
  - [   0.0202562212944031, -0.0702664554119110, -0.0604475401341915 ]
  - [   0.0163601897656918, -0.0679004937410355, -0.0388424396514893 ]
  - [   0.0159674733877182, -0.0679923295974731, -0.0385517366230488 ]
  - [   0.0159566197544336, -0.0678241401910782, -0.0390831157565117 ]
  - [   0.0157916843891144, -0.0679028481245041, -0.0388126745820045 ]
  - [   0.0163321923464537, -0.0679859146475792, -0.0388274043798447 ]
  - [   0.0163348130881786, -0.0678260028362274, -0.0387902893126011 ]
  - [   0.0115250870585442, -0.0656204372644424, -0.0377740710973740 ]
  - [   0.0115239843726158, -0.0655939131975174, -0.0378457009792328 ]
  - [   0.0114340335130692, -0.0656072795391083, -0.0378396362066269 ]
  - [   0.0114855775609612, -0.0656196996569633, -0.0378139615058899 ]
  - [   0.0114966742694378, -0.0655985325574875, -0.0378221347928047 ]
  - [   0.0114413797855377, -0.0656089037656784, -0.0378355681896210 ]
  - [   0.0224024914205074, -0.1528226435184479,  0.0996074825525284 ]
  - [   0.0223973207175732, -0.1527995467185974,  0.0997371375560760 ]
  - [   0.0223487019538879, -0.1527864634990692,  0.0996808186173439 ]
  - [   0.0216515064239502, -0.1534706205129623,  0.1003769636154175 ]
  - [   0.0216616038233042, -0.1522091329097748,  0.0989980846643448 ]
  - [   0.0225753840059042, -0.1528092026710510,  0.0996600165963173 ]
  - [   0.0244312360882759, -0.1501440405845642,  0.0995785295963287 ]
  - [   0.0245005842298269, -0.1501294076442719,  0.0995450243353844 ]
  - [   0.0244993753731251, -0.1501530259847641,  0.0996044725179672 ]
  - [   0.0233885198831558, -0.1500891447067261,  0.0996013581752777 ]
  - [   0.0245443116873503, -0.1500887572765350,  0.0996162146329880 ]
  - [   0.0245383940637112, -0.1501851379871368,  0.0995125547051430 ]
  - [   0.0106483828276396,  0.2257640659809113, -0.0637269318103790 ]
  - [   0.0161114949733019,  0.2298211157321930, -0.0623797476291656 ]
  - [   0.0103342477232218,  0.2343300282955170, -0.0608954988420010 ]
  - [   0.0154825523495674,  0.2302670478820801, -0.0624081790447235 ]
  - [   0.0159908272325993,  0.2298487424850464, -0.0623721703886986 ]
  - [   0.0154783679172397,  0.2294436693191528, -0.0623445846140385 ]
  - [  -0.0245765130966902,  0.0936932414770126, -0.0111355148255825 ]
  - [  -0.0245744436979294,  0.0936606451869011, -0.0110907293856144 ]
  - [  -0.0246211308985949,  0.0936693698167801, -0.0110227074474096 ]
  - [  -0.0245342608541250,  0.0936437100172043, -0.0110419532284141 ]
  - [  -0.0245226994156837,  0.0936778634786606, -0.0111031047999859 ]
  - [  -0.0245808139443398,  0.0937104374170303, -0.0111232437193394 ]
  - [  -0.0267578884959221,  0.0978454202413559, -0.0087821204215288 ]
  - [  -0.0265401527285576,  0.0983997359871864, -0.0085048973560333 ]
  - [  -0.0263083502650261,  0.0970888957381248, -0.0091769564896822 ]
  - [  -0.0267614517360926,  0.0978793650865555, -0.0087832873687148 ]
  - [  -0.0272167250514030,  0.0979033708572388, -0.0088606486096978 ]
  - [  -0.0272001158446074,  0.0978197604417801, -0.0087108165025711 ]
  - [   0.0186240207403898,  0.2269396483898163, -0.0626003593206406 ]
  - [   0.0186420008540154,  0.2268244624137878, -0.0623575560748577 ]
  - [   0.0184665061533451,  0.2268645912408829, -0.0625094100832939 ]
  - [   0.0185432322323322,  0.2268209606409073, -0.0624945759773254 ]
  - [   0.0185528844594955,  0.2269433438777924, -0.0624627247452736 ]
  - [   0.0184198822826147,  0.2268733233213425, -0.0624921731650829 ]
- atom:    1
  displacement:
    [   0.0000417346911328,  0.0099999129103986,  0.0000000000000000 ]
  forces:
  - [  -0.0106750903651118,  0.0810215622186661,  0.0475211739540100 ]
  - [  -0.0107492022216320,  0.1034213602542877,  0.0492853000760078 ]
  - [  -0.0111923813819885,  0.1034224927425385,  0.0492727346718311 ]
  - [  -0.0109749371185899,  0.1030548214912415,  0.0493139624595642 ]
  - [  -0.0109526552259922,  0.1032321304082870,  0.0492559857666492 ]
  - [  -0.0109803667291999,  0.1032323688268661,  0.0492514707148075 ]
  - [   0.0227802358567715, -0.0676585361361504, -0.0619351491332054 ]
  - [   0.0227767787873745, -0.0676307082176208, -0.0618045553565025 ]
  - [   0.0227922983467579, -0.0676140636205673, -0.0618377886712551 ]
  - [   0.0227787867188454, -0.0676882714033127, -0.0623213872313499 ]
  - [   0.0227789841592312, -0.0675481185317039, -0.0618012025952339 ]
  - [   0.0227890089154243, -0.0675160884857178, -0.0619204863905907 ]
  - [  -0.0101672392338514,  0.1046480387449265,  0.0479005798697472 ]