# Thermal properties / unit cell (natom)

unit:
  temperature:   K
  free_energy:   kJ/mol
  entropy:       J/K/mol
  heat_capacity: J/K/mol

natom: 9    
cutoff_frequency: 0.00000
num_modes: 151875
num_integrated_modes: 151873

zero_point_energy:      22.6594310

thermal_properties:
- temperature:         0.0000000
  free_energy:        22.6594310
  entropy:             0.0000000
  heat_capacity:       0.0000000
  energy:             22.6594310

- temperature:        10.0000000
  free_energy:        22.6558654
  entropy:             1.4969289
  heat_capacity:       5.0842381
  energy:             22.6708347

- temperature:        20.0000000
  free_energy:        22.5949290
  entropy:            12.5925541
  heat_capacity:      32.4732291
  energy:             22.8467801

- temperature:        30.0000000
  free_energy:        22.3782336
  entropy:            31.4300251
  heat_capacity:      61.2744236
  energy:             23.3211344

- temperature:        40.0000000
  free_energy:        21.9603792
  entropy:            52.1903171
  heat_capacity:      83.0618213
  energy:             24.0479919

- temperature:        50.0000000
  free_energy:        21.3356884
  entropy:            72.6233244
  heat_capacity:     100.1549738
  energy:             24.9668546

- temperature:        60.0000000
  free_energy:        20.5108119
  entropy:            92.1992933
  heat_capacity:     114.7052521
  energy:             26.0427695

- temperature:        70.0000000
  free_energy:        19.4947372
  entropy:           110.8668111
  heat_capacity:     127.5728754
  energy:             27.2554140

- temperature:        80.0000000
  free_energy:        18.2963790
  entropy:           128.6632369
  heat_capacity:     138.9995649
  energy:             28.5894379

- temperature:        90.0000000
  free_energy:        16.9242401
  entropy:           145.6291842
  heat_capacity:     149.0651978
  energy:             30.0308667

- temperature:       100.0000000
  free_energy:        15.3864447
  entropy:           161.8002774
  heat_capacity:     157.8511444
  energy:             31.5664725

- temperature:       110.0000000
  free_energy:        13.6907689
  entropy:           177.2111402
  heat_capacity:     165.4691481
  energy:             33.1839943

- temperature:       120.0000000
  free_energy:        11.8446354
  entropy:           191.8980232
  heat_capacity:     172.0500790
  energy:             34.8723982

- temperature:       130.0000000
  free_energy:         9.8550943
  entropy:           205.8991795
  heat_capacity:     177.7282741
  energy:             36.6219877

- temperature:       140.0000000
  free_energy:         7.7288060
  entropy:           219.2540962
  heat_capacity:     182.6307549
  energy:             38.4243795

- temperature:       150.0000000
  free_energy:         5.4720342
  entropy:           232.0024344
  heat_capacity:     186.8717312
  energy:             40.2723994

- temperature:       160.0000000
  free_energy:         3.0906494
  entropy:           244.1830819
  heat_capacity:     190.5507594
  energy:             42.1599425

- temperature:       170.0000000
  free_energy:         0.5901400
  entropy:           255.8334515
  heat_capacity:     193.7529900
  energy:             44.0818267

- temperature:       180.0000000
  free_energy:        -2.0243705
  entropy:           266.9890269
  heat_capacity:     196.5504314
  energy:             46.0336543

- temperature:       190.0000000
  free_energy:        -4.7481025
  entropy:           277.6831124
  heat_capacity:     199.0035950
  energy:             48.0116889

- temperature:       200.0000000
  free_energy:        -7.5765981
  entropy:           287.9467334
  heat_capacity:     201.1631802
  energy:             50.0127485

- temperature:       210.0000000
  free_energy:       -10.5056984
  entropy:           297.8086404
  heat_capacity:     203.0716340
  energy:             52.0341161

- temperature:       220.0000000
  free_energy:       -13.5315206
  entropy:           307.2953815
  heat_capacity:     204.7645235
  energy:             54.0734633

- temperature:       230.0000000
  free_energy:       -16.6504372
  entropy:           316.4314143
  heat_capacity:     206.2717054
  energy:             56.1287881

- temperature:       240.0000000
  free_energy:       -19.8590551
  entropy:           325.2392403
  heat_capacity:     207.6183064
  energy:             58.1983626

- temperature:       250.0000000
  free_energy:       -23.1541971
  entropy:           333.7395485
  heat_capacity:     208.8255359
  energy:             60.2806900

- temperature:       260.0000000
  free_energy:       -26.5328846
  entropy:           341.9513595
  heat_capacity:     209.9113558
  energy:             62.3744689

- temperature:       270.0000000
  free_energy:       -29.9923211
  entropy:           349.8921654
  heat_capacity:     210.8910298
  energy:             64.4785635

- temperature:       280.0000000
  free_energy:       -33.5298783
  entropy:           357.5780628
  heat_capacity:     211.7775752
  energy:             66.5919793

- temperature:       290.0000000
  free_energy:       -37.1430822
  entropy:           365.0238764
  heat_capacity:     212.5821329
  energy:             68.7138419

- temperature:       300.0000000
  free_energy:       -40.8296012
  entropy:           372.2432731
  heat_capacity:     213.3142719
  energy:             70.8433807

- temperature:       310.0000000
  free_energy:       -44.5872351
  entropy:           379.2488668
  heat_capacity:     213.9822399
  energy:             72.9799136

- temperature:       320.0000000
  free_energy:       -48.4139049
  entropy:           386.0523135
  heat_capacity:     214.5931702
  energy:             75.1228355

- temperature:       330.0000000
  free_energy:       -52.3076436
  entropy:           392.6643975
  heat_capacity:     215.1532532
  energy:             77.2716076

- temperature:       340.0000000
  free_energy:       -56.2665883
  entropy:           399.0951100
  heat_capacity:     215.6678783
  energy:             79.4257491

- temperature:       350.0000000
  free_energy:       -60.2889722
  entropy:           405.3537188
  heat_capacity:     216.1417526
  energy:             81.5848294

- temperature:       360.0000000
  free_energy:       -64.3731178
  entropy:           411.4488330
  heat_capacity:     216.5790000
  energy:             83.7484621

- temperature:       370.0000000
  free_energy:       -68.5174306
  entropy:           417.3884596
  heat_capacity:     216.9832442
  energy:             85.9162994

- temperature:       380.0000000
  free_energy:       -72.7203936
  entropy:           423.1800559
  heat_capacity:     217.3576784
  energy:             88.0880276

- temperature:       390.0000000
  free_energy:       -76.9805615
  entropy:           428.8305759
  heat_capacity:     217.7051241
  energy:             90.2633631

- temperature:       400.0000000
  free_energy:       -81.2965565
  entropy:           434.3465127
  heat_capacity:     218.0280816
  energy:             92.4420485

- temperature:       410.0000000
  free_energy:       -85.6670635
  entropy:           439.7339365
  heat_capacity:     218.3287717
  energy:             94.6238505

- temperature:       420.0000000
  free_energy:       -90.0908259
  entropy:           444.9985291
  heat_capacity:     218.6091722
  energy:             96.8085564

- temperature:       430.0000000
  free_energy:       -94.5666424
  entropy:           450.1456154
  heat_capacity:     218.8710486
  energy:             98.9959722

- temperature:       440.0000000
  free_energy:       -99.0933632
  entropy:           455.1801910
  heat_capacity:     219.1159805
  energy:            101.1859209

- temperature:       450.0000000
  free_energy:      -103.6698868
  entropy:           460.1069487
  heat_capacity:     219.3453846
  energy:            103.3782401

- temperature:       460.0000000
  free_energy:      -108.2951575
  entropy:           464.9303012
  heat_capacity:     219.5605338
  energy:            105.5727811

- temperature:       470.0000000
  free_energy:      -112.9681621
  entropy:           469.6544024
  heat_capacity:     219.7625746
  energy:            107.7694071

- temperature:       480.0000000
  free_energy:      -117.6879278
  entropy:           474.2831669
  heat_capacity:     219.9525415
  energy:            109.9679923

- temperature:       490.0000000
  free_energy:      -122.4535199
  entropy:           478.8202872
  heat_capacity:     220.1313697
  energy:            112.1684208

- temperature:       500.0000000
  free_energy:      -127.2640397
  entropy:           483.2692502
  heat_capacity:     220.2999066
  energy:            114.3705854

- temperature:       510.0000000
  free_energy:      -132.1186221
  entropy:           487.6333515
  heat_capacity:     220.4589209
  energy:            116.5743872

- temperature:       520.0000000
  free_energy:      -137.0164343
  entropy:           491.9157090
  heat_capacity:     220.6091115
  energy:            118.7797344

- temperature:       530.0000000
  free_energy:      -141.9566736
  entropy:           496.1192751
  heat_capacity:     220.7511148
  energy:            120.9865421

- temperature:       540.0000000
  free_energy:      -146.9385665
  entropy:           500.2468478
  heat_capacity:     220.8855113
  energy:            123.1947314

- temperature:       550.0000000
  free_energy:      -151.9613662
  entropy:           504.3010817
  heat_capacity:     221.0128311
  energy:            125.4042288

- temperature:       560.0000000
  free_energy:      -157.0243520
  entropy:           508.2844966
  heat_capacity:     221.1335594
  energy:            127.6149660

- temperature:       570.0000000
  free_energy:      -162.1268280
  entropy:           512.1994868
  heat_capacity:     221.2481407
  energy:            129.8268795

- temperature:       580.0000000
  free_energy:      -167.2681213
  entropy:           516.0483293
  heat_capacity:     221.3569830
  energy:            132.0399097

- temperature:       590.0000000
  free_energy:      -172.4475813
  entropy:           519.8331909
  heat_capacity:     221.4604610
  energy:            134.2540013

- temperature:       600.0000000
  free_energy:      -177.6645787
  entropy:           523.5561349
  heat_capacity:     221.5589197
  energy:            136.4691022

- temperature:       610.0000000
  free_energy:      -182.9185042
  entropy:           527.2191282
  heat_capacity:     221.6526767
  energy:            138.6851640

- temperature:       620.0000000
  free_energy:      -188.2087677
  entropy:           530.8240464
  heat_capacity:     221.7420252
  energy:            140.9021410

- temperature:       630.0000000
  free_energy:      -193.5347975
  entropy:           534.3726797
  heat_capacity:     221.8272360
  energy:            143.1199907

- temperature:       640.0000000
  free_energy:      -198.8960394
  entropy:           537.8667379
  heat_capacity:     221.9085595
  energy:            145.3386728

- temperature:       650.0000000
  free_energy:      -204.2919558
  entropy:           541.3078547
  heat_capacity:     221.9862274
  energy:            147.5581497

- temperature:       660.0000000
  free_energy:      -209.7220253
  entropy:           544.6975926
  heat_capacity:     222.0604547
  energy:            149.7783859

- temperature:       670.0000000
  free_energy:      -215.1857414
  entropy:           548.0374469
  heat_capacity:     222.1314406
  energy:            151.9993480

- temperature:       680.0000000
  free_energy:      -220.6826127
  entropy:           551.3288488
  heat_capacity:     222.1993706
  energy:            154.2210045

- temperature:       690.0000000
  free_energy:      -226.2121615
  entropy:           554.5731699
  heat_capacity:     222.2644166
  energy:            156.4433258

- temperature:       700.0000000
  free_energy:      -231.7739235
  entropy:           557.7717247
  heat_capacity:     222.3267391
  energy:            158.6662838

- temperature:       710.0000000
  free_energy:      -237.3674476
  entropy:           560.9257741
  heat_capacity:     222.3864875
  energy:            160.8898520

- temperature:       720.0000000
  free_energy:      -242.9922947
  entropy:           564.0365279
  heat_capacity:     222.4438010
  energy:            163.1140054

- temperature:       730.0000000
  free_energy:      -248.6480377
  entropy:           567.1051480
  heat_capacity:     222.4988097
  energy:            165.3387203

- temperature:       740.0000000
  free_energy:      -254.3342609
  entropy:           570.1327504
  heat_capacity:     222.5516350
  energy:            167.5639743

- temperature:       750.0000000
  free_energy:      -260.0505596
  entropy:           573.1204076
  heat_capacity:     222.6023907
  energy:            169.7897461

- temperature:       760.0000000
  free_energy:      -265.7965394
  entropy:           576.0691513
  heat_capacity:     222.6511830
  energy:            172.0160156

- temperature:       770.0000000
  free_energy:      -271.5718162
  entropy:           578.9799738
  heat_capacity:     222.6981117
  energy:            174.2427636

- temperature:       780.0000000
  free_energy:      -277.3760157
  entropy:           581.8538302
  heat_capacity:     222.7432701
  energy:            176.4699719

- temperature:       790.0000000
  free_energy:      -283.2087727
  entropy:           584.6916406
  heat_capacity:     222.7867458
  energy:            178.6976234

- temperature:       800.0000000
  free_energy:      -289.0697313
  entropy:           587.4942910
  heat_capacity:     222.8286213
  energy:            180.9257015

- temperature:       810.0000000
  free_energy:      -294.9585441
  entropy:           590.2626356
  heat_capacity:     222.8689738
  energy:            183.1541907

- temperature:       820.0000000
  free_energy:      -300.8748724
  entropy:           592.9974982
  heat_capacity:     222.9078761
  energy:            185.3830762

- temperature:       830.0000000
  free_energy:      -306.8183852
  entropy:           595.6996732
  heat_capacity:     222.9453967
  energy:            187.6123436

- temperature:       840.0000000
  free_energy:      -312.7887594
  entropy:           598.3699275
  heat_capacity:     222.9816001
  energy:            189.8419797

- temperature:       850.0000000
  free_energy:      -318.7856798
  entropy:           601.0090014
  heat_capacity:     223.0165470
  energy:            192.0719715

- temperature:       860.0000000
  free_energy:      -324.8088379
  entropy:           603.6176100
  heat_capacity:     223.0502947
  energy:            194.3023066

- temperature:       870.0000000
  free_energy:      -330.8579327
  entropy:           606.1964440
  heat_capacity:     223.0828975
  energy:            196.5329735

- temperature:       880.0000000
  free_energy:      -336.9326698
  entropy:           608.7461713
  heat_capacity:     223.1144063
  energy:            198.7639609

- temperature:       890.0000000
  free_energy:      -343.0327613
  entropy:           611.2674376
  heat_capacity:     223.1448694
  energy:            200.9952582

- temperature:       900.0000000
  free_energy:      -349.1579257
  entropy:           613.7608675
  heat_capacity:     223.1743325
  energy:            203.2268550

- temperature:       910.0000000
  free_energy:      -355.3078879
  entropy:           616.2270654
  heat_capacity:     223.2028387
  energy:            205.4587416

- temperature:       920.0000000
  free_energy:      -361.4823782
  entropy:           618.6666163
  heat_capacity:     223.2304291
  energy:            207.6909087

- temperature:       930.0000000
  free_energy:      -367.6811333
  entropy:           621.0800866
  heat_capacity:     223.2571423
  energy:            209.9233473

- temperature:       940.0000000
  free_energy:      -373.9038949
  entropy:           623.4680251
  heat_capacity:     223.2830149
  energy:            212.1560488

- temperature:       950.0000000
  free_energy:      -380.1504104
  entropy:           625.8309635
  heat_capacity:     223.3080819
  energy:            214.3890049

- temperature:       960.0000000
  free_energy:      -386.4204325
  entropy:           628.1694170
  heat_capacity:     223.3323763
  energy:            216.6222078

- temperature:       970.0000000
  free_energy:      -392.7137188
  entropy:           630.4838853
  heat_capacity:     223.3559294
  energy:            218.8556500

- temperature:       980.0000000
  free_energy:      -399.0300319
  entropy:           632.7748530
  heat_capacity:     223.3787711
  energy:            221.0893240

- temperature:       990.0000000
  free_energy:      -405.3691391
  entropy:           635.0427901
  heat_capacity:     223.4009296
  energy:            223.3232231

- temperature:      1000.0000000
  free_energy:      -411.7308124
  entropy:           637.2881529
  heat_capacity:     223.4224318
  energy:            225.5573404
