phonopy:
  version: "2.37.1"
  frequency_unit_conversion_factor: 15.633302
  symmetry_tolerance: 1.00000e-05

space_group:
  type: "I4/mmm"
  number: 139
  Hall_symbol: "-I 4 2"

primitive_matrix:
- [  1.000000000000000,  0.000000000000000, -1.000000000000000 ]
- [  1.000000000000000,  0.000000000000000,  0.000000000000000 ]
- [  1.000000000000000, -1.000000000000000,  0.000000000000000 ]

supercell_matrix:
- [   2,   0,   0 ]
- [   0,   2,   0 ]
- [   0,   0,   2 ]

primitive_cell:
  lattice:
  - [     3.902459530896504,     2.685603725863752,     3.260100157555019 ] # a
  - [     3.902459204960945,     2.685603434624365,    -3.260100157555019 ] # b
  - [    -5.750644291885555,     0.000000000000000,     0.000000000000000 ] # c
  points:
  - symbol: Li # 1
    coordinates: [  0.999999998532719,  0.999999999617518,  0.999999997488035 ]
    mass: 6.940000
  - symbol: Sn # 2
    coordinates: [  0.250000002057502,  0.749999999910389,  0.500000003073797 ]
    mass: 118.710000
  - symbol: Sn # 3
    coordinates: [  0.500000002307976,  0.500000002741527,  0.000000003245237 ]
    mass: 118.710000
  - symbol: Sn # 4
    coordinates: [  0.749999997029426,  0.249999997724971,  0.499999996131068 ]
    mass: 118.710000
  reciprocal_lattice: # without 2pi
  - [    -0.000000000000000,     0.186177887041155,     0.153369512813931 ] # a*
  - [    -0.000000000000000,     0.186177887041155,    -0.153369529446038 ] # b*
  - [    -0.173893558572393,     0.252685300118504,    -0.000000002594064 ] # c*

unit_cell:
  lattice:
  - [     5.750644291885555,     0.000000000000000,     0.000000000000000 ] # a
  - [     2.054274443971894,     5.371207160488117,     0.000000000000000 ] # b
  - [    -3.902459204960945,    -2.685603434624365,     3.260100157555019 ] # c
  points:
  - symbol: Li # 1
    coordinates: [  0.000000001044685,  0.999999998532719,  0.999999998915201 ]
    mass: 6.940000
    reduced_to: 1
  - symbol: Sn # 2
    coordinates: [  0.749999998983705,  0.250000002057502,  0.500000002147113 ]
    mass: 118.710000
    reduced_to: 2
  - symbol: Sn # 3
    coordinates: [  0.499999999062739,  0.500000002307976,  0.999999999566449 ]
    mass: 118.710000
    reduced_to: 3
  - symbol: Sn # 4
    coordinates: [  0.250000000898358,  0.749999997029426,  0.499999999304456 ]
    mass: 118.710000
    reduced_to: 4

supercell:
  lattice:
  - [    11.501288583771110,     0.000000000000000,     0.000000000000000 ] # a
  - [     4.108548887943788,    10.742414320976234,     0.000000000000000 ] # b
  - [    -7.804918409921889,    -5.371206869248731,     6.520200315110038 ] # c
  points:
  - symbol: Li # 1
    coordinates: [  0.000000000522342,  0.499999999266360,  0.499999999457601 ]
    mass: 6.940000
    reduced_to: 1
  - symbol: Li # 2
    coordinates: [  0.500000000522342,  0.499999999266360,  0.499999999457601 ]
    mass: 6.940000
    reduced_to: 1
  - symbol: Li # 3
    coordinates: [  0.000000000522342,  0.999999999266360,  0.499999999457601 ]
    mass: 6.940000
    reduced_to: 1
  - symbol: Li # 4
    coordinates: [  0.500000000522342,  0.999999999266360,  0.499999999457601 ]
    mass: 6.940000
    reduced_to: 1
  - symbol: Li # 5
    coordinates: [  0.000000000522342,  0.499999999266360,  0.999999999457601 ]
    mass: 6.940000
    reduced_to: 1
  - symbol: Li # 6
    coordinates: [  0.500000000522342,  0.499999999266360,  0.999999999457601 ]
    mass: 6.940000
    reduced_to: 1
  - symbol: Li # 7
    coordinates: [  0.000000000522342,  0.999999999266360,  0.999999999457601 ]
    mass: 6.940000
    reduced_to: 1
  - symbol: Li # 8
    coordinates: [  0.500000000522342,  0.999999999266360,  0.999999999457601 ]
    mass: 6.940000
    reduced_to: 1
  - symbol: Sn # 9
    coordinates: [  0.374999999491852,  0.125000001028751,  0.250000001073556 ]
    mass: 118.710000
    reduced_to: 9
  - symbol: Sn # 10
    coordinates: [  0.874999999491852,  0.125000001028751,  0.250000001073556 ]
    mass: 118.710000
    reduced_to: 9
  - symbol: Sn # 11
    coordinates: [  0.374999999491852,  0.625000001028751,  0.250000001073556 ]
    mass: 118.710000
    reduced_to: 9
  - symbol: Sn # 12
    coordinates: [  0.874999999491852,  0.625000001028751,  0.250000001073556 ]
    mass: 118.710000
    reduced_to: 9
  - symbol: Sn # 13
    coordinates: [  0.374999999491852,  0.125000001028751,  0.750000001073556 ]
    mass: 118.710000
    reduced_to: 9
  - symbol: Sn # 14
    coordinates: [  0.874999999491852,  0.125000001028751,  0.750000001073556 ]
    mass: 118.710000
    reduced_to: 9
  - symbol: Sn # 15
    coordinates: [  0.374999999491852,  0.625000001028751,  0.750000001073556 ]
    mass: 118.710000
    reduced_to: 9
  - symbol: Sn # 16
    coordinates: [  0.874999999491852,  0.625000001028751,  0.750000001073556 ]
    mass: 118.710000
    reduced_to: 9
  - symbol: Sn # 17
    coordinates: [  0.249999999531369,  0.250000001153988,  0.499999999783224 ]
    mass: 118.710000
    reduced_to: 17
  - symbol: Sn # 18
    coordinates: [  0.749999999531369,  0.250000001153988,  0.499999999783224 ]
    mass: 118.710000
    reduced_to: 17
  - symbol: Sn # 19
    coordinates: [  0.249999999531369,  0.750000001153988,  0.499999999783224 ]
    mass: 118.710000
    reduced_to: 17
  - symbol: Sn # 20
    coordinates: [  0.749999999531369,  0.750000001153988,  0.499999999783224 ]
    mass: 118.710000
    reduced_to: 17
  - symbol: Sn # 21
    coordinates: [  0.249999999531369,  0.250000001153988,  0.999999999783224 ]
    mass: 118.710000
    reduced_to: 17
  - symbol: Sn # 22
    coordinates: [  0.749999999531369,  0.250000001153988,  0.999999999783224 ]
    mass: 118.710000
    reduced_to: 17
  - symbol: Sn # 23
    coordinates: [  0.249999999531369,  0.750000001153988,  0.999999999783224 ]
    mass: 118.710000
    reduced_to: 17
  - symbol: Sn # 24
    coordinates: [  0.749999999531369,  0.750000001153988,  0.999999999783224 ]
    mass: 118.710000
    reduced_to: 17
  - symbol: Sn # 25
    coordinates: [  0.125000000449179,  0.374999998514713,  0.249999999652228 ]
    mass: 118.710000
    reduced_to: 25
  - symbol: Sn # 26
    coordinates: [  0.625000000449179,  0.374999998514713,  0.249999999652228 ]
    mass: 118.710000
    reduced_to: 25
  - symbol: Sn # 27
    coordinates: [  0.125000000449179,  0.874999998514713,  0.249999999652228 ]
    mass: 118.710000
    reduced_to: 25
  - symbol: Sn # 28
    coordinates: [  0.625000000449179,  0.874999998514713,  0.249999999652228 ]
    mass: 118.710000
    reduced_to: 25
  - symbol: Sn # 29
    coordinates: [  0.125000000449179,  0.374999998514713,  0.749999999652228 ]
    mass: 118.710000
    reduced_to: 25
  - symbol: Sn # 30
    coordinates: [  0.625000000449179,  0.374999998514713,  0.749999999652228 ]
    mass: 118.710000
    reduced_to: 25
  - symbol: Sn # 31
    coordinates: [  0.125000000449179,  0.874999998514713,  0.749999999652228 ]
    mass: 118.710000
    reduced_to: 25
  - symbol: Sn # 32
    coordinates: [  0.625000000449179,  0.874999998514713,  0.749999999652228 ]
    mass: 118.710000
    reduced_to: 25

displacements:
- atom:    1
  displacement:
    [   0.0100000000000000,  0.0000000000000000,  0.0000000000000000 ]
  forces:
  - [  -0.0122928516939282, -0.0009399907430634, -0.0000005830079317 ]
  - [   0.0004114587791264,  0.0000155214220285,  0.0000003371387720 ]
  - [   0.0001046913675964,  0.0001324433833361,  0.0000007711350918 ]
  - [  -0.0003097211010754,  0.0007461966015399,  0.0000001285225153 ]
  - [   0.0002148766070604,  0.0001368052326143, -0.0001358231529593 ]
  - [  -0.0003389958292246, -0.0002623214968480,  0.0003295801579952 ]
  - [  -0.0003390731289983, -0.0002607795177028, -0.0003292323090136 ]
  - [   0.0002151047810912,  0.0001369768870063,  0.0001355437561870 ]
  - [   0.0000014328586531, -0.0000664173494442, -0.0000345441512764 ]
  - [   0.0002551655343268,  0.0008381979423575,  0.0003727767616510 ]
  - [   0.0000039488131733, -0.0000637083066977,  0.0000337380915880 ]
  - [   0.0002473916392773,  0.0008372213924304, -0.0003728223964572 ]
  - [  -0.0000177458859980, -0.0000393316149712,  0.0000654813338770 ]
  - [  -0.0000205553951673, -0.0000418539602833, -0.0000668906868668 ]
  - [   0.0023188591003418,  0.0002610194496810,  0.0012810231419280 ]
  - [   0.0022572642192245,  0.0002560131251812, -0.0012371288612485 ]
  - [   0.0010561301605776, -0.0020334946457297, -0.0000004321336746 ]
  - [   0.0003775115183089,  0.0002694598224480, -0.0000001452863216 ]
  - [   0.0003650508006103,  0.0002627978101373, -0.0000002076849341 ]
  - [   0.0010452475398779, -0.0019979581702501, -0.0000001555308700 ]
  - [  -0.0000383832812076,  0.0000210961734410, -0.0000003045424819 ]
  - [  -0.0002621775493026, -0.0001084578689188,  0.0000087767839432 ]
  - [  -0.0002610981464386, -0.0001082045491785, -0.0000080894678831 ]
  - [  -0.0000382345169783,  0.0000205636024475, -0.0000008614733815 ]
  - [   0.0023190376814455,  0.0002614893019199, -0.0012804935686290 ]
  - [   0.0022580225486308,  0.0002570301294327,  0.0012370692566037 ]
  - [  -0.0000179603230208, -0.0000380296551157, -0.0000652698799968 ]
  - [  -0.0000203093513846, -0.0000406182371080,  0.0000664633698761 ]
  - [   0.0002543395385146,  0.0008383058011532, -0.0003729360178113 ]
  - [   0.0000016046687961, -0.0000656801275909,  0.0000343741849065 ]
  - [   0.0002471380867064,  0.0008382671512663,  0.0003735614009202 ]
  - [   0.0000028284266591, -0.0000625499524176, -0.0000337143428624 ]
- atom:    9
  displacement:
    [   0.0100000000000000,  0.0000000000000000,  0.0000000000000000 ]
  forces:
  - [   0.0000029322691262, -0.0000486275894218, -0.0000476865097880 ]
  - [   0.0002483152784407,  0.0010441578924656,  0.0005424171686172 ]
  - [   0.0000021541491151, -0.0000484297052026,  0.0000479724258184 ]
  - [   0.0002523406874388,  0.0010325131006539, -0.0005336711183190 ]
  - [  -0.0000200839713216, -0.0000570739794057,  0.0000516297295690 ]
  - [  -0.0000177966430783, -0.0000559826730751, -0.0000539394095540 ]
  - [   0.0022512089926749,  0.0000588757684454,  0.0013968204148114 ]
  - [   0.0023264819756150,  0.0000593304866925, -0.0014520259574056 ]
  - [  -0.0164506379514933,  0.0015798939857632, -0.0000526732765138 ]
  - [   0.0004233730433043,  0.0000883055690792,  0.0000003529712558 ]
  - [   0.0001930392027134,  0.0001763892942108,  0.0000006342306733 ]
  - [   0.0006390216294676, -0.0007255710661411, -0.0000001620501280 ]
  - [   0.0002050977200270,  0.0002834303304553, -0.0001020698546199 ]
  - [   0.0000241424422711, -0.0001030811326928,  0.0000825495662866 ]
  - [   0.0000221496447921, -0.0001064683310688, -0.0000833237136248 ]
  - [   0.0002021929249167,  0.0002828055294231,  0.0001012180291582 ]
  - [   0.0034881257452071,  0.0003925272030756, -0.0020276885479689 ]
  - [   0.0036472054198384,  0.0004057602491230,  0.0021305102854967 ]
  - [  -0.0000924953201320, -0.0001198657264467, -0.0001397468149662 ]
  - [  -0.0000947324442677, -0.0001208174071508,  0.0001368019729853 ]
  - [  -0.0000140459160320,  0.0009138748864643, -0.0003731586039066 ]
  - [   0.0000946335494518, -0.0000629092101008,  0.0000803070142865 ]
  - [  -0.0000082608312368,  0.0009088721126318,  0.0003714207559824 ]
  - [   0.0000944063067436, -0.0000637713819742, -0.0000781444832683 ]
  - [   0.0012077766004950, -0.0030265431851149,  0.0004325369372964 ]
  - [   0.0002699529286474,  0.0001802663318813, -0.0000294581986964 ]
  - [   0.0002969123888761,  0.0002023742126767,  0.0000309618189931 ]
  - [   0.0012378192041069, -0.0031215958297253, -0.0004463633522391 ]
  - [   0.0014831144362688,  0.0004770602099597,  0.0000058440491557 ]
  - [  -0.0012760257814080,  0.0000248965807259, -0.0000037397257984 ]
  - [  -0.0002810074947774, -0.0003555244766176,  0.0000093113631010 ]
  - [  -0.0003572897985578, -0.0000950731337070,  0.0000025467015803 ]
- atom:   17
  displacement:
    [   0.0100000000000000,  0.0000000000000000,  0.0000000000000000 ]
  forces:
  - [   0.0010421713814139, -0.0019893031567335,  0.0000002142041922 ]
  - [   0.0003640213981271,  0.0002607367932796,  0.0000002896413207 ]
  - [   0.0003793775103986,  0.0002704914659262,  0.0000007692724466 ]
  - [   0.0010593764018267, -0.0020420006476343,  0.0000007068738341 ]
  - [  -0.0000384021550417,  0.0000209191057365, -0.0000030538067222 ]
  - [  -0.0002617919817567, -0.0001080249494407,  0.0000017397105694 ]
  - [  -0.0002614534460008, -0.0001074176980183, -0.0000016656704247 ]
  - [  -0.0000382468570024,  0.0000209835707210,  0.0000028153881431 ]
  - [   0.0036568394862115, -0.0004622288688552, -0.0028523290529847 ]
  - [   0.0034798700362444, -0.0004536775522865,  0.0027177063748240 ]
  - [  -0.0000921708342503,  0.0000100528341136, -0.0002474002540112 ]
  - [  -0.0000944156927289,  0.0000072445618571,  0.0002434067428112 ]
  - [  -0.0000088843517005,  0.0017547961324453, -0.0010724468156695 ]
  - [   0.0000905210326891, -0.0001914359454531, -0.0000259168882621 ]
  - [  -0.0000142329372466,  0.0017813141457736,  0.0010840264149010 ]
  - [   0.0000971676781774, -0.0001947047130670,  0.0000295382633340 ]
  - [  -0.0166851263493299, -0.0011856998316944, -0.0000004200264812 ]
  - [   0.0002882074913941, -0.0000661030353513, -0.0000001871958375 ]
  - [   0.0001004185323836,  0.0000066231004894, -0.0000002579763532 ]
  - [  -0.0002530119963922,  0.0001674271916272, -0.0000004116445780 ]
  - [  -0.0000236024061451,  0.0002880931715481, -0.0000835182145238 ]
  - [   0.0000608526170254, -0.0001671400386840,  0.0001153368502855 ]
  - [   0.0000616777688265, -0.0001672427169979, -0.0001163547858596 ]
  - [  -0.0000234236940742,  0.0002874881029129,  0.0000826017931104 ]
  - [  -0.0000138157047331,  0.0017817909829319, -0.0010834890417755 ]
  - [   0.0000980834010988, -0.0001936145126820, -0.0000293846242130 ]
  - [  -0.0000094308052212,  0.0017561311833560,  0.0010724905878305 ]
  - [   0.0000908507499844, -0.0001901839859784,  0.0000257743522525 ]
  - [   0.0034791934303939, -0.0004530674777925, -0.0027176872827113 ]
  - [   0.0036568846553564, -0.0004617907106876,  0.0028521264903247 ]
  - [  -0.0000945017673075,  0.0000081653706729, -0.0002425974234939 ]
  - [  -0.0000929830130190,  0.0000113751739264,  0.0002475781366229 ]

force_constants:
  format: "full"
  shape: [ 32, 32 ]
  elements:
  - # (1, 1)
    - [     1.229290265263687,     0.094001483370206,    -0.000000007463591 ]
    - [     0.094001483370206,     1.157386560597597,    -0.000000005530259 ]
    - [    -0.000000007463591,    -0.000000005530259,     1.092696406589534 ]
  - # (1, 2)
    - [    -0.041163997255722,    -0.001528196515405,     0.000000000221509 ]
    - [    -0.001528198109030,    -0.004794009382805,    -0.000000000444794 ]
    - [     0.000000001350782,     0.000000000117796,    -0.001605787247430 ]
  - # (1, 3)
    - [    -0.010454955609745,    -0.013273192892201,    -0.000000000435909 ]
    - [    -0.013273191107018,    -0.035503051053070,     0.000000000471937 ]
    - [     0.000000000517398,     0.000000002198478,    -0.001605787247430 ]
  - # (1, 4)
    - [     0.030977203892968,    -0.074617246181307,     0.000000000166048 ]
    - [    -0.074617251022591,     0.088053501863723,    -0.000000001319542 ]
    - [     0.000000004313090,     0.000000001534379,     0.139403787428008 ]
  - # (1, 5)
    - [    -0.021486906077259,    -0.013681833540547,     0.013542276080196 ]
    - [    -0.013681833674933,    -0.011021384768549,     0.009319554608876 ]
    - [     0.013542277610487,     0.009319555950631,    -0.015055502626267 ]
  - # (1, 6)
    - [     0.033908543119727,     0.026157460903978,    -0.032940628224923 ]
    - [     0.026157461894585,     0.013900157355364,     0.047866127225096 ]
    - [    -0.032940627983902,     0.047866128102709,    -0.004100943038030 ]
  - # (1, 7)
    - [     0.033908546276911,     0.026157460004803,     0.032940621640146 ]
    - [     0.026157461118523,     0.013900153010870,    -0.047866133096420 ]
    - [     0.032940621939161,    -0.047866132511923,    -0.004100942223657 ]
  - # (1, 8)
    - [    -0.021486906625889,    -0.013681834218017,    -0.013542275975456 ]
    - [    -0.013681834115505,    -0.011021385278137,    -0.009319555477815 ]
    - [    -0.013542275839338,    -0.009319555162099,    -0.015055499311911 ]
  - # (1, 9)
    - [    -0.000239559839672,     0.006466882379650,     0.003404823970257 ]
    - [     0.004837008443224,    -0.002113823383080,    -0.008402531157276 ]
    - [     0.004747479843105,    -0.007478539208097,    -0.006790473320307 ]
  - # (1, 10)
    - [    -0.025064774902903,    -0.083833059365562,    -0.037330262976080 ]
    - [    -0.103818739947504,    -0.186896417147794,    -0.120564152800487 ]
    - [    -0.053794062169086,    -0.131894258090514,    -0.047250645497039 ]
  - # (1, 11)
    - [    -0.000239560111679,     0.006466882287520,    -0.003404824022168 ]
    - [     0.004837009142077,    -0.002113822512091,     0.008402529126824 ]
    - [    -0.004747481914575,     0.007478536725509,    -0.006790473623257 ]
  - # (1, 12)
    - [    -0.025064772759616,    -0.083833057000218,     0.037330267313156 ]
    - [    -0.103818734765882,    -0.186896413120511,     0.120564166108421 ]
    - [     0.053794070074917,     0.131894281000940,    -0.047250669525015 ]
  - # (1, 13)
    - [     0.001896947494547,     0.004019878537520,    -0.006631828767249 ]
    - [     0.005649752336250,    -0.004250331681727,     0.006181762194463 ]
    - [    -0.005289173532644,     0.007105754507147,    -0.006790473396905 ]
  - # (1, 14)
    - [     0.001896948008236,     0.004019879289304,     0.006631828384130 ]
    - [     0.005649751902958,    -0.004250332030458,    -0.006181763041648 ]
    - [     0.005289171117397,    -0.007105756593845,    -0.006790473546658 ]
  - # (1, 15)
    - [    -0.228856040193395,    -0.025876636722746,    -0.125944435887384 ]
    - [    -0.005890954251625,     0.016894847173043,     0.008201391512414 ]
    - [    -0.142408245543614,    -0.003128701870018,    -0.047250648114783 ]
  - # (1, 16)
    - [    -0.228856033883379,    -0.025876631631302,     0.125944448026110 ]
    - [    -0.005890955565956,     0.016894846935349,    -0.008201391321071 ]
    - [     0.142408263855285,     0.003128699940746,    -0.047250666907271 ]
  - # (1, 17)
    - [    -0.105086580861815,     0.201554084794375,    -0.000000003827650 ]
    - [     0.201554085425764,    -0.259259523359682,    -0.000000001161537 ]
    - [    -0.000000003360794,    -0.000000000437055,     0.010473804877699 ]
  - # (1, 18)
    - [    -0.037146925325439,    -0.026591276643104,    -0.000000000531954 ]
    - [    -0.026591276728798,    -0.016806700987105,    -0.000000001070542 ]
    - [    -0.000000000882415,    -0.000000000777706,     0.001492950976066 ]
  - # (1, 19)
    - [    -0.037146925325439,    -0.026591276643104,    -0.000000000531954 ]
    - [    -0.026591276728798,    -0.016806700987105,    -0.000000001070542 ]
    - [    -0.000000000882415,    -0.000000000777706,     0.001492950976066 ]
  - # (1, 20)
    - [    -0.105086580861815,     0.201554084794375,    -0.000000003827650 ]
    - [     0.201554085425764,    -0.259259523359682,    -0.000000001161537 ]
    - [    -0.000000003360794,    -0.000000000437055,     0.010473804877699 ]
  - # (1, 21)
    - [     0.003833773704938,    -0.002093191559636,    -0.000000002039368 ]
    - [    -0.002093191453507,     0.005434899489227,    -0.000000001844813 ]
    - [    -0.000000002076693,    -0.000000001859283,     0.006875402096347 ]
  - # (1, 22)
    - [     0.026180682177838,     0.010809195168443,    -0.000000002645811 ]
    - [     0.010809196285880,     0.017912499452334,     0.000000000236713 ]
    - [    -0.000000012632928,    -0.000000010687679,    -0.397965500180285 ]
  - # (1, 23)
    - [     0.026180682177838,     0.010809195168443,    -0.000000002645811 ]
    - [     0.010809196285880,     0.017912499452334,     0.000000000236713 ]
    - [    -0.000000012632928,    -0.000000010687679,    -0.397965500180285 ]
  - # (1, 24)
    - [     0.003833773704938,    -0.002093191559636,    -0.000000002039368 ]
    - [    -0.002093191453507,     0.005434899489227,    -0.000000001844813 ]
    - [    -0.000000002076693,    -0.000000001859283,     0.006875402096347 ]
  - # (1, 25)
    - [    -0.228856033883379,    -0.025876631631302,     0.125944448026110 ]
    - [    -0.005890955565956,     0.016894846935349,    -0.008201391321071 ]
    - [     0.142408263855285,     0.003128699940746,    -0.047250666907271 ]
  - # (1, 26)
    - [    -0.228856040193395,    -0.025876636722746,    -0.125944435887384 ]
    - [    -0.005890954251625,     0.016894847173043,     0.008201391512414 ]
    - [    -0.142408245543614,    -0.003128701870018,    -0.047250648114783 ]
  - # (1, 27)
    - [     0.001896948008236,     0.004019879289304,     0.006631828384130 ]
    - [     0.005649751902958,    -0.004250332030458,    -0.006181763041648 ]
    - [     0.005289171117397,    -0.007105756593845,    -0.006790473546658 ]
  - # (1, 28)
    - [     0.001896947494547,     0.004019878537520,    -0.006631828767249 ]
    - [     0.005649752336250,    -0.004250331681727,     0.006181762194463 ]
    - [    -0.005289173532644,     0.007105754507147,    -0.006790473396905 ]
  - # (1, 29)
    - [    -0.025064772759616,    -0.083833057000218,     0.037330267313156 ]
    - [    -0.103818734765882,    -0.186896413120511,     0.120564166108421 ]
    - [     0.053794070074917,     0.131894281000940,    -0.047250669525015 ]
  - # (1, 30)
    - [    -0.000239560111679,     0.006466882287520,    -0.003404824022168 ]
    - [     0.004837009142077,    -0.002113822512091,     0.008402529126824 ]
    - [    -0.004747481914575,     0.007478536725509,    -0.006790473623257 ]
  - # (1, 31)
    - [    -0.025064774902903,    -0.083833059365562,    -0.037330262976080 ]
    - [    -0.103818739947504,    -0.186896417147794,    -0.120564152800487 ]
    - [    -0.053794062169086,    -0.131894258090514,    -0.047250645497039 ]
  - # (1, 32)
    - [    -0.000239559839672,     0.006466882379650,     0.003404823970257 ]
    - [     0.004837008443224,    -0.002113823383080,    -0.008402531157276 ]
    - [     0.004747479843105,    -0.007478539208097,    -0.006790473320307 ]
  - # (2, 1)
    - [    -0.041163997255722,    -0.001528198109030,     0.000000001350782 ]
    - [    -0.001528196515405,    -0.004794009382805,     0.000000000117796 ]
    - [     0.000000000221509,    -0.000000000444794,    -0.001605787247430 ]
  - # (2, 2)
    - [     1.229290304312025,     0.094001505969939,    -0.000000058639411 ]
    - [     0.094001505969939,     1.157386418716404,    -0.000000062136435 ]
    - [    -0.000000058639411,    -0.000000062136435,     1.092696510561454 ]
  - # (2, 3)
    - [     0.030977204144509,    -0.074617241609722,     0.000000002707556 ]
    - [    -0.074617249451166,     0.088053498551179,    -0.000000000303273 ]
    - [     0.000000003062069,    -0.000000000101594,     0.139403791561064 ]
  - # (2, 4)
    - [    -0.010454957833687,    -0.013273192447343,     0.000000001468420 ]
    - [    -0.013273191826995,    -0.035503044119496,     0.000000003234767 ]
    - [     0.000000000955135,     0.000000002609382,    -0.001605790100941 ]
  - # (2, 5)
    - [     0.033908543873212,     0.026157459387776,    -0.032940631360592 ]
    - [     0.026157460564365,     0.013900159842260,     0.047866129658239 ]
    - [    -0.032940626862183,     0.047866125669458,    -0.004100947449001 ]
  - # (2, 6)
    - [    -0.021486907365771,    -0.013681833199447,     0.013542280313301 ]
    - [    -0.013681831756488,    -0.011021380691013,     0.009319557872489 ]
    - [     0.013542279483609,     0.009319557176624,    -0.015055505834868 ]
  - # (2, 7)
    - [    -0.021486908258138,    -0.013681833558659,    -0.013542278590590 ]
    - [    -0.013681832270587,    -0.011021381117563,    -0.009319556786449 ]
    - [    -0.013542278636152,    -0.009319555922455,    -0.015055502745118 ]
  - # (2, 8)
    - [     0.033908544020472,     0.026157459331446,     0.032940626772873 ]
    - [     0.026157460558658,     0.013900159729826,    -0.047866132214693 ]
    - [     0.032940622503381,    -0.047866128127924,    -0.004100945448592 ]
  - # (2, 9)
    - [    -0.025064774626620,    -0.083833052184984,    -0.037330260488324 ]
    - [    -0.103818747883937,    -0.186896418454391,    -0.120564159520142 ]
    - [    -0.053794064610373,    -0.131894250020851,    -0.047250644398815 ]
  - # (2, 10)
    - [    -0.000239561611291,     0.006466880616854,     0.003404825982258 ]
    - [     0.004837008820899,    -0.002113813717725,    -0.008402528670265 ]
    - [     0.004747482989383,    -0.007478535477584,    -0.006790479859289 ]
  - # (2, 11)
    - [    -0.025064774770628,    -0.083833052978364,     0.037330273936820 ]
    - [    -0.103818746346019,    -0.186896417575767,     0.120564188008438 ]
    - [     0.053794076376837,     0.131894275097706,    -0.047250675778848 ]
  - # (2, 12)
    - [    -0.000239561696146,     0.006466880607366,    -0.003404824339131 ]
    - [     0.004837008391919,    -0.002113814350749,     0.008402531110759 ]
    - [    -0.004747483253833,     0.007478536666470,    -0.006790481020490 ]
  - # (2, 13)
    - [     0.001896947370447,     0.004019877571616,     0.006631827507564 ]
    - [     0.005649753251867,    -0.004250327743058,    -0.006181764101786 ]
    - [     0.005289167794716,    -0.007105757328453,    -0.006790476489621 ]
  - # (2, 14)
    - [     0.001896947565288,     0.004019878000685,    -0.006631825539032 ]
    - [     0.005649753089143,    -0.004250327755497,     0.006181766390064 ]
    - [    -0.005289167684853,     0.007105757867534,    -0.006790476502582 ]
  - # (2, 15)
    - [    -0.228856040645682,    -0.025876635674079,     0.125944459894869 ]
    - [    -0.005890954667196,     0.016894849851334,    -0.008201390878737 ]
    - [     0.142408269365076,     0.003128703504055,    -0.047250675108468 ]
  - # (2, 16)
    - [    -0.228856042428213,    -0.025876635444910,    -0.125944433679871 ]
    - [    -0.005890953328551,     0.016894849977355,     0.008201393649017 ]
    - [    -0.142408246740849,    -0.003128700745722,    -0.047250650286333 ]
  - # (2, 17)
    - [    -0.037146927747198,    -0.026591276837675,     0.000000002169301 ]
    - [    -0.026591276831337,    -0.016806696072006,     0.000000001525567 ]
    - [     0.000000000894275,     0.000000000753676,     0.001492946461404 ]
  - # (2, 18)
    - [    -0.105086579968735,     0.201554070896423,    -0.000000005182202 ]
    - [     0.201554086749048,    -0.259259500093721,     0.000000002584260 ]
    - [    -0.000000003174698,     0.000000000008699,     0.010473804361219 ]
  - # (2, 19)
    - [    -0.105086579968735,     0.201554070896423,    -0.000000005182202 ]
    - [     0.201554086749048,    -0.259259500093721,     0.000000002584260 ]
    - [    -0.000000003174698,     0.000000000008699,     0.010473804361219 ]
  - # (2, 20)
    - [    -0.037146927747198,    -0.026591276837675,     0.000000002169301 ]
    - [    -0.026591276831337,    -0.016806696072006,     0.000000001525567 ]
    - [     0.000000000894275,     0.000000000753676,     0.001492946461404 ]
  - # (2, 21)
    - [     0.026180679654937,     0.010809195481669,    -0.000000012527133 ]
    - [     0.010809197681341,     0.017912501666367,    -0.000000010593350 ]
    - [    -0.000000003148716,    -0.000000000233116,    -0.397965501888485 ]
  - # (2, 22)
    - [     0.003833776085391,    -0.002093192937080,     0.000000000253712 ]
    - [    -0.002093191563337,     0.005434903503462,     0.000000000774953 ]
    - [     0.000000000149056,     0.000000000546453,     0.006875398862024 ]
  - # (2, 23)
    - [     0.003833776085391,    -0.002093192937080,     0.000000000253712 ]
    - [    -0.002093191563337,     0.005434903503462,     0.000000000774953 ]
    - [     0.000000000149056,     0.000000000546453,     0.006875398862024 ]
  - # (2, 24)
    - [     0.026180679654937,     0.010809195481669,    -0.000000012527133 ]
    - [     0.010809197681341,     0.017912501666367,    -0.000000010593350 ]
    - [    -0.000000003148716,    -0.000000000233116,    -0.397965501888485 ]
  - # (2, 25)
    - [    -0.228856042428213,    -0.025876635444910,    -0.125944433679871 ]
    - [    -0.005890953328551,     0.016894849977355,     0.008201393649017 ]
    - [    -0.142408246740849,    -0.003128700745722,    -0.047250650286333 ]
  - # (2, 26)
    - [    -0.228856040645682,    -0.025876635674079,     0.125944459894869 ]
    - [    -0.005890954667196,     0.016894849851334,    -0.008201390878737 ]
    - [     0.142408269365076,     0.003128703504055,    -0.047250675108468 ]
  - # (2, 27)
    - [     0.001896947565288,     0.004019878000685,    -0.006631825539032 ]
    - [     0.005649753089143,    -0.004250327755497,     0.006181766390064 ]
    - [    -0.005289167684853,     0.007105757867534,    -0.006790476502582 ]
  - # (2, 28)
    - [     0.001896947370447,     0.004019877571616,     0.006631827507564 ]
    - [     0.005649753251867,    -0.004250327743058,    -0.006181764101786 ]
    - [     0.005289167794716,    -0.007105757328453,    -0.006790476489621 ]
  - # (2, 29)
    - [    -0.000239561696146,     0.006466880607366,    -0.003404824339131 ]
    - [     0.004837008391919,    -0.002113814350749,     0.008402531110759 ]
    - [    -0.004747483253833,     0.007478536666470,    -0.006790481020490 ]
  - # (2, 30)
    - [    -0.025064774770627,    -0.083833052978364,     0.037330273936820 ]
    - [    -0.103818746346019,    -0.186896417575767,     0.120564188008438 ]
    - [     0.053794076376837,     0.131894275097706,    -0.047250675778848 ]
  - # (2, 31)
    - [    -0.000239561611291,     0.006466880616854,     0.003404825982258 ]
    - [     0.004837008820899,    -0.002113813717725,    -0.008402528670265 ]
    - [     0.004747482989383,    -0.007478535477584,    -0.006790479859289 ]
  - # (2, 32)
    - [    -0.025064774626620,    -0.083833052184984,    -0.037330260488324 ]