# Thermal properties / unit cell (natom)

unit:
  temperature:   K
  free_energy:   kJ/mol
  entropy:       J/K/mol
  heat_capacity: J/K/mol

natom: 4    
cutoff_frequency: 0.00000
num_modes: 214272
num_integrated_modes: 214269

zero_point_energy:       6.9379813

thermal_properties:
- temperature:         0.0000000
  free_energy:         6.9379813
  entropy:             0.0000000
  heat_capacity:       0.0000000
  energy:              6.9379813

- temperature:        10.0000000
  free_energy:         6.9353302
  entropy:             1.2357612
  heat_capacity:       4.4296238
  energy:              6.9476878

- temperature:        20.0000000
  free_energy:         6.8851552
  entropy:            10.1246693
  heat_capacity:      24.5269634
  energy:              7.0876486

- temperature:        30.0000000
  free_energy:         6.7178221
  entropy:            23.6229593
  heat_capacity:      42.0891016
  energy:              7.4265109

- temperature:        40.0000000
  free_energy:         6.4120670
  entropy:            37.4161604
  heat_capacity:      53.5493046
  energy:              7.9087134

- temperature:        50.0000000
  free_energy:         5.9727611
  entropy:            50.2613640
  heat_capacity:      61.4604223
  energy:              8.4858293

- temperature:        60.0000000
  free_energy:         5.4104782
  entropy:            62.0209663
  heat_capacity:      67.4842590
  energy:              9.1317361

- temperature:        70.0000000
  free_energy:         4.7356103
  entropy:            72.8002270
  heat_capacity:      72.3297612
  energy:              9.8316262

- temperature:        80.0000000
  free_energy:         3.9573138
  entropy:            82.7267328
  heat_capacity:      76.3077453
  energy:             10.5754525

- temperature:        90.0000000
  free_energy:         3.0835498
  entropy:            91.9103491
  heat_capacity:      79.5943607
  energy:             11.3554812

- temperature:       100.0000000
  free_energy:         2.1212789
  entropy:           100.4418520
  heat_capacity:      82.3175402
  energy:             12.1654641

- temperature:       110.0000000
  free_energy:         1.0766327
  entropy:           108.3969805
  heat_capacity:      84.5806962
  energy:             13.0003006

- temperature:       120.0000000
  free_energy:        -0.0449543
  entropy:           115.8398734
  heat_capacity:      86.4690924
  energy:             13.8558305

- temperature:       130.0000000
  free_energy:        -1.2386412
  entropy:           122.8254507
  heat_capacity:      88.0525375
  energy:             14.7286674

- temperature:       140.0000000
  free_energy:        -2.5000975
  entropy:           129.4010866
  heat_capacity:      89.3876110
  energy:             15.6160546

- temperature:       150.0000000
  free_energy:        -3.8254340
  entropy:           135.6078563
  heat_capacity:      90.5198464
  energy:             16.5157445

- temperature:       160.0000000
  free_energy:        -5.2111448
  entropy:           141.4815170
  heat_capacity:      91.4857643
  energy:             17.4258979

- temperature:       170.0000000
  free_energy:        -6.6540585
  entropy:           147.0533065
  heat_capacity:      92.3146460
  energy:             18.3450036

- temperature:       180.0000000
  free_energy:        -8.1512963
  entropy:           152.3506072
  heat_capacity:      93.0300122
  energy:             19.2718130

- temperature:       190.0000000
  free_energy:        -9.7002363
  entropy:           157.3975017
  heat_capacity:      93.6508191
  energy:             20.2052891

- temperature:       200.0000000
  free_energy:       -11.2984828
  entropy:           162.2152420
  heat_capacity:      94.1924100
  energy:             21.1445656

- temperature:       210.0000000
  free_energy:       -12.9438402
  entropy:           166.8226441
  heat_capacity:      94.6672646
  energy:             22.0889151

- temperature:       220.0000000
  free_energy:       -14.6342904
  entropy:           171.2364233
  heat_capacity:      95.0855871
  energy:             23.0377227

- temperature:       230.0000000
  free_energy:       -16.3679731
  entropy:           175.4714764
  heat_capacity:      95.4557653
  energy:             23.9904665

- temperature:       240.0000000
  free_energy:       -18.1431688
  entropy:           179.5411229
  heat_capacity:      95.7847320
  energy:             24.9467007

- temperature:       250.0000000
  free_energy:       -19.9582842
  entropy:           183.4573088
  heat_capacity:      96.0782476
  energy:             25.9060430

- temperature:       260.0000000
  free_energy:       -21.8118393
  entropy:           187.2307807
  heat_capacity:      96.3411238
  energy:             26.8681636

- temperature:       270.0000000
  free_energy:       -23.7024565
  entropy:           190.8712348
  heat_capacity:      96.5774002
  energy:             27.8327769

- temperature:       280.0000000
  free_energy:       -25.6288500
  entropy:           194.3874442
  heat_capacity:      96.7904851
  energy:             28.7996344

- temperature:       290.0000000
  free_energy:       -27.5898178
  entropy:           197.7873684
  heat_capacity:      96.9832675
  energy:             29.7685190

- temperature:       300.0000000
  free_energy:       -29.5842339
  entropy:           201.0782475
  heat_capacity:      97.1582080
  energy:             30.7392403

- temperature:       310.0000000
  free_energy:       -31.6110414
  entropy:           204.2666842
  heat_capacity:      97.3174110
  energy:             31.7116307

- temperature:       320.0000000
  free_energy:       -33.6692463
  entropy:           207.3587139
  heat_capacity:      97.4626839
  energy:             32.6855421

- temperature:       330.0000000
  free_energy:       -35.7579128
  entropy:           210.3598666
  heat_capacity:      97.5955854
  energy:             33.6608432

- temperature:       340.0000000
  free_energy:       -37.8761577
  entropy:           213.2752201
  heat_capacity:      97.7174652
  energy:             34.6374171

- temperature:       350.0000000
  free_energy:       -40.0231468
  entropy:           216.1094471
  heat_capacity:      97.8294955
  energy:             35.6151597

- temperature:       360.0000000
  free_energy:       -42.1980906
  entropy:           218.8668562
  heat_capacity:      97.9326988
  energy:             36.5939776

- temperature:       370.0000000
  free_energy:       -44.4002412
  entropy:           221.5514281
  heat_capacity:      98.0279694
  energy:             37.5737872

- temperature:       380.0000000
  free_energy:       -46.6288887
  entropy:           224.1668471
  heat_capacity:      98.1160926
  energy:             38.5545132

- temperature:       390.0000000
  free_energy:       -48.8833590
  entropy:           226.7165297
  heat_capacity:      98.1977593
  energy:             39.5360876

- temperature:       400.0000000
  free_energy:       -51.1630108
  entropy:           229.2036492
  heat_capacity:      98.2735801
  energy:             40.5184489

- temperature:       410.0000000
  free_energy:       -53.4672333
  entropy:           231.6311581
  heat_capacity:      98.3440954
  energy:             41.5015415

- temperature:       420.0000000
  free_energy:       -55.7954444
  entropy:           234.0018075
  heat_capacity:      98.4097852
  energy:             42.4853147

- temperature:       430.0000000
  free_energy:       -58.1470885
  entropy:           236.3181652
  heat_capacity:      98.4710766
  energy:             43.4697225

- temperature:       440.0000000
  free_energy:       -60.5216348
  entropy:           238.5826310
  heat_capacity:      98.5283512
  energy:             44.4547229

- temperature:       450.0000000
  free_energy:       -62.9185757
  entropy:           240.7974511
  heat_capacity:      98.5819500
  energy:             45.4402773

- temperature:       460.0000000
  free_energy:       -65.3374253
  entropy:           242.9647304
  heat_capacity:      98.6321791
  energy:             46.4263507

- temperature:       470.0000000
  free_energy:       -67.7777184
  entropy:           245.0864446
  heat_capacity:      98.6793134
  energy:             47.4129106

- temperature:       480.0000000
  free_energy:       -70.2390085
  entropy:           247.1644500
  heat_capacity:      98.7236005
  energy:             48.3999274

- temperature:       490.0000000
  free_energy:       -72.7208675
  entropy:           249.2004926
  heat_capacity:      98.7652639
  energy:             49.3873739

- temperature:       500.0000000
  free_energy:       -75.2228840
  entropy:           251.1962173
  heat_capacity:      98.8045058
  energy:             50.3752246

- temperature:       510.0000000
  free_energy:       -77.7446627
  entropy:           253.1531748
  heat_capacity:      98.8415093
  energy:             51.3634565

- temperature:       520.0000000
  free_energy:       -80.2858232
  entropy:           255.0728290
  heat_capacity:      98.8764406
  energy:             52.3520479

- temperature:       530.0000000
  free_energy:       -82.8459995
  entropy:           256.9565631
  heat_capacity:      98.9094509
  energy:             53.3409789

- temperature:       540.0000000
  free_energy:       -85.4248391
  entropy:           258.8056853
  heat_capacity:      98.9406778
  energy:             54.3302310

- temperature:       550.0000000
  free_energy:       -88.0220020
  entropy:           260.6214344
  heat_capacity:      98.9702470
  energy:             55.3197870

- temperature:       560.0000000
  free_energy:       -90.6371604
  entropy:           262.4049843
  heat_capacity:      98.9982732
  energy:             56.3096308

- temperature:       570.0000000
  free_energy:       -93.2699981
  entropy:           264.1574486
  heat_capacity:      99.0248616
  energy:             57.2997476

- temperature:       580.0000000
  free_energy:       -95.9202093
  entropy:           265.8798843
  heat_capacity:      99.0501085
  energy:             58.2901236

- temperature:       590.0000000
  free_energy:       -98.5874990
  entropy:           267.5732960
  heat_capacity:      99.0741022
  energy:             59.2807456

- temperature:       600.0000000
  free_energy:      -101.2715817
  entropy:           269.2386390
  heat_capacity:      99.0969240
  energy:             60.2716017

- temperature:       610.0000000
  free_energy:      -103.9721813
  entropy:           270.8768225
  heat_capacity:      99.1186488
  energy:             61.2626804

- temperature:       620.0000000
  free_energy:      -106.6890305
  entropy:           272.4887125
  heat_capacity:      99.1393455
  energy:             62.2539712

- temperature:       630.0000000
  free_energy:      -109.4218706
  entropy:           274.0751345
  heat_capacity:      99.1590778
  energy:             63.2454641

- temperature:       640.0000000
  free_energy:      -112.1704509
  entropy:           275.6368761
  heat_capacity:      99.1779044
  energy:             64.2371498

- temperature:       650.0000000
  free_energy:      -114.9345284
  entropy:           277.1746889
  heat_capacity:      99.1958798
  energy:             65.2290194

- temperature:       660.0000000
  free_energy:      -117.7138673
  entropy:           278.6892910
  heat_capacity:      99.2130544
  energy:             66.2210647

- temperature:       670.0000000
  free_energy:      -120.5082391
  entropy:           280.1813688
  heat_capacity:      99.2294749
  energy:             67.2132780

- temperature:       680.0000000
  free_energy:      -123.3174218
  entropy:           281.6515789
  heat_capacity:      99.2451847
  energy:             68.2056518

- temperature:       690.0000000
  free_energy:      -126.1411999
  entropy:           283.1005498
  heat_capacity:      99.2602241
  energy:             69.1981794

- temperature:       700.0000000
  free_energy:      -128.9793640
  entropy:           284.5288832
  heat_capacity:      99.2746306
  energy:             70.1908542

- temperature:       710.0000000
  free_energy:      -131.8317107
  entropy:           285.9371560
  heat_capacity:      99.2884391
  energy:             71.1836700

- temperature:       720.0000000
  free_energy:      -134.6980421
  entropy:           287.3259211
  heat_capacity:      99.3016822
  energy:             72.1766211

- temperature:       730.0000000
  free_energy:      -137.5781659
  entropy:           288.6957093
  heat_capacity:      99.3143903
  energy:             73.1697019

- temperature:       740.0000000
  free_energy:      -140.4718948
  entropy:           290.0470297
  heat_capacity:      99.3265918
  energy:             74.1629072

- temperature:       750.0000000
  free_energy:      -143.3790465
  entropy:           291.3803716
  heat_capacity:      99.3383131
  energy:             75.1562321

- temperature:       760.0000000
  free_energy:      -146.2994438
  entropy:           292.6962050
  heat_capacity:      99.3495790
  energy:             76.1496720

- temperature:       770.0000000
  free_energy:      -149.2329138
  entropy:           293.9949819
  heat_capacity:      99.3604129
  energy:             77.1432223

- temperature:       780.0000000
  free_energy:      -152.1792881
  entropy:           295.2771371
  heat_capacity:      99.3708364
  energy:             78.1368789

- temperature:       790.0000000
  free_energy:      -155.1384025
  entropy:           296.5430889
  heat_capacity:      99.3808700
  energy:             79.1306377

- temperature:       800.0000000
  free_energy:      -158.1100972
  entropy:           297.7932402
  heat_capacity:      99.3905328
  energy:             80.1244950

- temperature:       810.0000000
  free_energy:      -161.0942160
  entropy:           299.0279792
  heat_capacity:      99.3998429
  energy:             81.1184472

- temperature:       820.0000000
  free_energy:      -164.0906066
  entropy:           300.2476797
  heat_capacity:      99.4088172
  energy:             82.1124908

- temperature:       830.0000000
  free_energy:      -167.0991206
  entropy:           301.4527025
  heat_capacity:      99.4174716
  energy:             83.1066225

- temperature:       840.0000000
  free_energy:      -170.1196129
  entropy:           302.6433953
  heat_capacity:      99.4258211
  energy:             84.1008392

- temperature:       850.0000000
  free_energy:      -173.1519419
  entropy:           303.8200939
  heat_capacity:      99.4338798
  energy:             85.0951379

- temperature:       860.0000000
  free_energy:      -176.1959692
  entropy:           304.9831222
  heat_capacity:      99.4416611
  energy:             86.0895158

- temperature:       870.0000000
  free_energy:      -179.2515598
  entropy:           306.1327932
  heat_capacity:      99.4491775
  energy:             87.0839703

- temperature:       880.0000000
  free_energy:      -182.3185816
  entropy:           307.2694092
  heat_capacity:      99.4564409
  energy:             88.0784986

- temperature:       890.0000000
  free_energy:      -185.3969054
  entropy:           308.3932626
  heat_capacity:      99.4634625
  energy:             89.0730983

- temperature:       900.0000000
  free_energy:      -188.4864052
  entropy:           309.5046358
  heat_capacity:      99.4702529
  energy:             90.0677670

- temperature:       910.0000000
  free_energy:      -191.5869575
  entropy:           310.6038023
  heat_capacity:      99.4768222
  energy:             91.0625026

- temperature:       920.0000000
  free_energy:      -194.6984415
  entropy:           311.6910263
  heat_capacity:      99.4831797
  energy:             92.0573028

- temperature:       930.0000000
  free_energy:      -197.8207390
  entropy:           312.7665640
  heat_capacity:      99.4893346
  energy:             93.0521655

- temperature:       940.0000000
  free_energy:      -200.9537346
  entropy:           313.8306632
  heat_capacity:      99.4952952
  energy:             94.0470888

- temperature:       950.0000000
  free_energy:      -204.0973150
  entropy:           314.8835640
  heat_capacity:      99.5010698
  energy:             95.0420708

- temperature:       960.0000000
  free_energy:      -207.2513693
  entropy:           315.9254989
  heat_capacity:      99.5066659
  energy:             96.0371096

- temperature:       970.0000000
  free_energy:      -210.4157892
  entropy:           316.9566935
  heat_capacity:      99.5120907
  energy:             97.0322035

- temperature:       980.0000000
  free_energy:      -213.5904681
  entropy:           317.9773663
  heat_capacity:      99.5173513
  energy:             98.0273509

- temperature:       990.0000000
  free_energy:      -216.7753021
  entropy:           318.9877295
  heat_capacity:      99.5224542
  energy:             99.0225500

- temperature:      1000.0000000
  free_energy:      -219.9701890
  entropy:           319.9879885
  heat_capacity:      99.5274056
  energy:            100.0177995
