# Thermal properties / unit cell (natom)

unit:
  temperature:   K
  free_energy:   kJ/mol
  entropy:       J/K/mol
  heat_capacity: J/K/mol

natom: 4    
cutoff_frequency: 0.00000
num_modes: 165888
num_integrated_modes: 165886

zero_point_energy:      15.7493139

thermal_properties:
- temperature:         0.0000000
  free_energy:        15.7493139
  entropy:             0.0000000
  heat_capacity:       0.0000000
  energy:             15.7493139

- temperature:        10.0000000
  free_energy:        15.7488038
  entropy:             0.2076562
  heat_capacity:       0.7621654
  energy:             15.7508804

- temperature:        20.0000000
  free_energy:        15.7383559
  entropy:             2.3424434
  heat_capacity:       6.8294557
  energy:             15.7852047

- temperature:        30.0000000
  free_energy:        15.6954665
  entropy:             6.4000468
  heat_capacity:      13.2898185
  energy:             15.8874679

- temperature:        40.0000000
  free_energy:        15.6090015
  entropy:            10.9069851
  heat_capacity:      18.1067716
  energy:             16.0452809

- temperature:        50.0000000
  free_energy:        15.4773343
  entropy:            15.4240887
  heat_capacity:      22.5726615
  energy:             16.2485388

- temperature:        60.0000000
  free_energy:        15.3004621
  entropy:            19.9590797
  heat_capacity:      27.3976025
  energy:             16.4980069

- temperature:        70.0000000
  free_energy:        15.0778917
  entropy:            24.5707886
  heat_capacity:      32.6215835
  energy:             16.7978469

- temperature:        80.0000000
  free_energy:        14.8087209
  entropy:            29.2788884
  heat_capacity:      38.0234176
  energy:             17.1510320

- temperature:        90.0000000
  free_energy:        14.4920450
  entropy:            34.0671053
  heat_capacity:      43.3583497
  energy:             17.5580845

- temperature:       100.0000000
  free_energy:        14.1272251
  entropy:            38.9013315
  heat_capacity:      48.4435960
  energy:             18.0173582

- temperature:       110.0000000
  free_energy:        13.7139930
  entropy:            43.7432796
  heat_capacity:      53.1700483
  energy:             18.5257538

- temperature:       120.0000000
  free_energy:        13.2524515
  entropy:            48.5578446
  heat_capacity:      57.4879238
  energy:             19.0793928

- temperature:       130.0000000
  free_energy:        12.7430246
  entropy:            53.3160913
  heat_capacity:      61.3878675
  energy:             19.6741165

- temperature:       140.0000000
  free_energy:        12.1863921
  entropy:            57.9958157
  heat_capacity:      64.8850659
  energy:             20.3058063

- temperature:       150.0000000
  free_energy:        11.5834241
  entropy:            62.5809680
  heat_capacity:      68.0079002
  energy:             20.9705693

- temperature:       160.0000000
  free_energy:        10.9351247
  entropy:            67.0606595
  heat_capacity:      70.7905564
  energy:             21.6648302

- temperature:       170.0000000
  free_energy:        10.2425854
  entropy:            71.4281154
  heat_capacity:      73.2685386
  energy:             22.3853650

- temperature:       180.0000000
  free_energy:         9.5069488
  entropy:            75.6797288
  heat_capacity:      75.4761299
  energy:             23.1293000

- temperature:       190.0000000
  free_energy:         8.7293813
  entropy:            79.8142699
  heat_capacity:      77.4450924
  energy:             23.8940925

- temperature:       200.0000000
  free_energy:         7.9110521
  entropy:            83.8322516
  heat_capacity:      79.2041183
  energy:             24.6775024

- temperature:       210.0000000
  free_energy:         7.0531190
  entropy:            87.7354357
  heat_capacity:      80.7787152
  energy:             25.4775605

- temperature:       220.0000000
  free_energy:         6.1567173
  entropy:            91.5264535
  heat_capacity:      82.1913309
  energy:             26.2925371

- temperature:       230.0000000
  free_energy:         5.2229531
  entropy:            95.2085206
  heat_capacity:      83.4615943
  energy:             27.1209129

- temperature:       240.0000000
  free_energy:         4.2528982
  entropy:            98.7852232
  heat_capacity:      84.6066050
  energy:             27.9613517

- temperature:       250.0000000
  free_energy:         3.2475872
  entropy:           102.2603600
  heat_capacity:      85.6412292
  energy:             28.8126772

- temperature:       260.0000000
  free_energy:         2.2080165
  entropy:           105.6378272
  heat_capacity:      86.5783820
  energy:             29.6738516

- temperature:       270.0000000
  free_energy:         1.1351432
  entropy:           108.9215346
  heat_capacity:      87.4292855
  energy:             30.5439575

- temperature:       280.0000000
  free_energy:         0.0298855
  entropy:           112.1153464
  heat_capacity:      88.2036990
  energy:             31.4221825

- temperature:       290.0000000
  free_energy:        -1.1068767
  entropy:           115.2230402
  heat_capacity:      88.9101203
  energy:             32.3078050

- temperature:       300.0000000
  free_energy:        -2.2743005
  entropy:           118.2482785
  heat_capacity:      89.5559614
  energy:             33.2001831

- temperature:       310.0000000
  free_energy:        -3.4715792
  entropy:           121.1945908
  heat_capacity:      90.1476988
  energy:             34.0987440

- temperature:       320.0000000
  free_energy:        -4.6979405
  entropy:           124.0653631
  heat_capacity:      90.6910035
  energy:             35.0029757

- temperature:       330.0000000
  free_energy:        -5.9526454
  entropy:           126.8638324
  heat_capacity:      91.1908517
  energy:             35.9124192

- temperature:       340.0000000
  free_energy:        -7.2349865
  entropy:           129.5930852
  heat_capacity:      91.6516195
  energy:             36.8266625

- temperature:       350.0000000
  free_energy:        -8.5442862
  entropy:           132.2560586
  heat_capacity:      92.0771643
  energy:             37.7453343

- temperature:       360.0000000
  free_energy:        -9.8798960
  entropy:           134.8555439
  heat_capacity:      92.4708933
  energy:             38.6680998

- temperature:       370.0000000
  free_energy:       -11.2411943
  entropy:           137.3941906
  heat_capacity:      92.8358236
  energy:             39.5946562

- temperature:       380.0000000
  free_energy:       -12.6275854
  entropy:           139.8745122
  heat_capacity:      93.1746323
  energy:             40.5247292

- temperature:       390.0000000
  free_energy:       -14.0384981
  entropy:           142.2988919
  heat_capacity:      93.4897002
  energy:             41.4580697

- temperature:       400.0000000
  free_energy:       -15.4733843
  entropy:           144.6695888
  heat_capacity:      93.7831494
  energy:             42.3944512

- temperature:       410.0000000
  free_energy:       -16.9317181
  entropy:           146.9887441
  heat_capacity:      94.0568751
  energy:             43.3336670

- temperature:       420.0000000
  free_energy:       -18.4129942
  entropy:           149.2583876
  heat_capacity:      94.3125736
  energy:             44.2755286

- temperature:       430.0000000
  free_energy:       -19.9167272
  entropy:           151.4804435
  heat_capacity:      94.5517664
  energy:             45.2198635

- temperature:       440.0000000
  free_energy:       -21.4424505
  entropy:           153.6567364
  heat_capacity:      94.7758206
  energy:             46.1665135

- temperature:       450.0000000
  free_energy:       -22.9897152
  entropy:           155.7889972
  heat_capacity:      94.9859671
  energy:             47.1153335

- temperature:       460.0000000
  free_energy:       -24.5580892
  entropy:           157.8788682
  heat_capacity:      95.1833162
  energy:             48.0661902

- temperature:       470.0000000
  free_energy:       -26.1471565
  entropy:           159.9279085
  heat_capacity:      95.3688716
  energy:             49.0189605

- temperature:       480.0000000
  free_energy:       -27.7565162
  entropy:           161.9375990
  heat_capacity:      95.5435417
  energy:             49.9735313

- temperature:       490.0000000
  free_energy:       -29.3857820
  entropy:           163.9093466
  heat_capacity:      95.7081503
  energy:             50.9297978

- temperature:       500.0000000
  free_energy:       -31.0345811
  entropy:           165.8444888
  heat_capacity:      95.8634460
  energy:             51.8876633

- temperature:       510.0000000
  free_energy:       -32.7025540
  entropy:           167.7442980
  heat_capacity:      96.0101097
  energy:             52.8470380

- temperature:       520.0000000
  free_energy:       -34.3893534
  entropy:           169.6099849
  heat_capacity:      96.1487623
  energy:             53.8078388

- temperature:       530.0000000
  free_energy:       -36.0946438
  entropy:           171.4427023
  heat_capacity:      96.2799702
  energy:             54.7699884

- temperature:       540.0000000
  free_energy:       -37.8181012
  entropy:           173.2435487
  heat_capacity:      96.4042513
  energy:             55.7334151

- temperature:       550.0000000
  free_energy:       -39.5594120
  entropy:           175.0135709
  heat_capacity:      96.5220798
  energy:             56.6980520

- temperature:       560.0000000
  free_energy:       -41.3182732
  entropy:           176.7537675
  heat_capacity:      96.6338903
  energy:             57.6638367

- temperature:       570.0000000
  free_energy:       -43.0943911
  entropy:           178.4650915
  heat_capacity:      96.7400818
  energy:             58.6307110

- temperature:       580.0000000
  free_energy:       -44.8874818
  entropy:           180.1484527
  heat_capacity:      96.8410213
  energy:             59.5986208

- temperature:       590.0000000
  free_energy:       -46.6972699
  entropy:           181.8047203
  heat_capacity:      96.9370464
  energy:             60.5675151

- temperature:       600.0000000
  free_energy:       -48.5234887
  entropy:           183.4347251
  heat_capacity:      97.0284682
  energy:             61.5373464

- temperature:       610.0000000
  free_energy:       -50.3658795
  entropy:           185.0392616
  heat_capacity:      97.1155739
  energy:             62.5080701

- temperature:       620.0000000
  free_energy:       -52.2241915
  entropy:           186.6190901
  heat_capacity:      97.1986289
  energy:             63.4796443

- temperature:       630.0000000
  free_energy:       -54.0981814
  entropy:           188.1749386
  heat_capacity:      97.2778785
  energy:             64.4520300

- temperature:       640.0000000
  free_energy:       -55.9876127
  entropy:           189.7075042
  heat_capacity:      97.3535499
  energy:             65.4251900

- temperature:       650.0000000
  free_energy:       -57.8922561
  entropy:           191.2174551
  heat_capacity:      97.4258539
  energy:             66.3990897

- temperature:       660.0000000
  free_energy:       -59.8118886
  entropy:           192.7054319
  heat_capacity:      97.4949858
  energy:             67.3736965

- temperature:       670.0000000
  free_energy:       -61.7462935
  entropy:           194.1720493
  heat_capacity:      97.5611273
  energy:             68.3489795

- temperature:       680.0000000
  free_energy:       -63.6952603
  entropy:           195.6178970
  heat_capacity:      97.6244473
  energy:             69.3249096

- temperature:       690.0000000
  free_energy:       -65.6585841
  entropy:           197.0435415
  heat_capacity:      97.6851030
  energy:             70.3014596

- temperature:       700.0000000
  free_energy:       -67.6360656
  entropy:           198.4495270
  heat_capacity:      97.7432409
  energy:             71.2786033

- temperature:       710.0000000
  free_energy:       -69.6275109
  entropy:           199.8363765
  heat_capacity:      97.7989975
  energy:             72.2563164

- temperature:       720.0000000
  free_energy:       -71.6327310
  entropy:           201.2045928
  heat_capacity:      97.8525004
  energy:             73.2345757

- temperature:       730.0000000
  free_energy:       -73.6515422
  entropy:           202.5546597
  heat_capacity:      97.9038688
  energy:             74.2133593

- temperature:       740.0000000
  free_energy:       -75.6837653
  entropy:           203.8870428
  heat_capacity:      97.9532140
  energy:             75.1926464

- temperature:       750.0000000
  free_energy:       -77.7292256
  entropy:           205.2021905
  heat_capacity:      98.0006404
  energy:             76.1724172

- temperature:       760.0000000
  free_energy:       -79.7877531
  entropy:           206.5005345
  heat_capacity:      98.0462456
  energy:             77.1526531

- temperature:       770.0000000
  free_energy:       -81.8591817
  entropy:           207.7824910
  heat_capacity:      98.0901213
  energy:             78.1333364

- temperature:       780.0000000
  free_energy:       -83.9433496
  entropy:           209.0484611
  heat_capacity:      98.1323534
  energy:             79.1144501

- temperature:       790.0000000
  free_energy:       -86.0400989
  entropy:           210.2988318
  heat_capacity:      98.1730225
  energy:             80.0959782

- temperature:       800.0000000
  free_energy:       -88.1492755
  entropy:           211.5339763
  heat_capacity:      98.2122044
  energy:             81.0779056

- temperature:       810.0000000
  free_energy:       -90.2707289
  entropy:           212.7542549
  heat_capacity:      98.2499706
  energy:             82.0602176

- temperature:       820.0000000
  free_energy:       -92.4043122
  entropy:           213.9600155
  heat_capacity:      98.2863880
  energy:             83.0429005

- temperature:       830.0000000
  free_energy:       -94.5498819
  entropy:           215.1515940
  heat_capacity:      98.3215198
  energy:             84.0259411

- temperature:       840.0000000
  free_energy:       -96.7072979
  entropy:           216.3293151
  heat_capacity:      98.3554257
  energy:             85.0093268

- temperature:       850.0000000
  free_energy:       -98.8764231
  entropy:           217.4934927
  heat_capacity:      98.3881617
  energy:             85.9930457

- temperature:       860.0000000
  free_energy:      -101.0571236
  entropy:           218.6444301
  heat_capacity:      98.4197808
  energy:             86.9770863

- temperature:       870.0000000
  free_energy:      -103.2492686
  entropy:           219.7824210
  heat_capacity:      98.4503331
  energy:             87.9614377

- temperature:       880.0000000
  free_energy:      -105.4527298
  entropy:           220.9077493
  heat_capacity:      98.4798658
  energy:             88.9460896

- temperature:       890.0000000
  free_energy:      -107.6673822
  entropy:           222.0206899
  heat_capacity:      98.5084236
  energy:             89.9310318

- temperature:       900.0000000
  free_energy:      -109.8931032
  entropy:           223.1215091
  heat_capacity:      98.5360489
  energy:             90.9162549

- temperature:       910.0000000
  free_energy:      -112.1297729
  entropy:           224.2104645
  heat_capacity:      98.5627816
  energy:             91.9017498

- temperature:       920.0000000
  free_energy:      -114.3772738
  entropy:           225.2878060
  heat_capacity:      98.5886596
  energy:             92.8875077

- temperature:       930.0000000
  free_energy:      -116.6354911
  entropy:           226.3537757
  heat_capacity:      98.6137189
  energy:             93.8735203

- temperature:       940.0000000
  free_energy:      -118.9043122
  entropy:           227.4086082
  heat_capacity:      98.6379935
  energy:             94.8597795

- temperature:       950.0000000
  free_energy:      -121.1836269
  entropy:           228.4525311
  heat_capacity:      98.6615157
  energy:             95.8462776

- temperature:       960.0000000
  free_energy:      -123.4733272
  entropy:           229.4857652
  heat_capacity:      98.6843162
  energy:             96.8330074

- temperature:       970.0000000
  free_energy:      -125.7733073
  entropy:           230.5085247
  heat_capacity:      98.7064241
  energy:             97.8199616

- temperature:       980.0000000
  free_energy:      -128.0834635
  entropy:           231.5210175
  heat_capacity:      98.7278672
  energy:             98.8071336

- temperature:       990.0000000
  free_energy:      -130.4036941
  entropy:           232.5234454
  heat_capacity:      98.7486717
  energy:             99.7945169

- temperature:      1000.0000000
  free_energy:      -132.7338995
  entropy:           233.5160045
  heat_capacity:      98.7688626
  energy:            100.7821050
