phonopy:
  version: "2.37.1"
  frequency_unit_conversion_factor: 15.633302
  symmetry_tolerance: 1.00000e-05

space_group:
  type: "P1"
  number: 1
  Hall_symbol: "P 1"

primitive_matrix:
- [ -0.000000000000000, -0.000000000000000, -1.000000000000000 ]
- [ -1.000000000000000,  0.000000000000000,  0.000000000000000 ]
- [  0.000000000000000,  1.000000000000000,  0.000000000000000 ]

supercell_matrix:
- [   2,   0,   0 ]
- [   0,   2,   0 ]
- [   0,   0,   2 ]

primitive_cell:
  lattice:
  - [    -0.000021172881563,    -5.078692131762690,     0.000000000000000 ] # a
  - [    -0.000003709053377,    -2.364882080466627,     4.494984005552035 ] # b
  - [    -5.133764411286125,     0.000000000000000,     0.000000000000000 ] # c
  points:
  - symbol: Li # 1
    coordinates: [  0.700385170389222,  0.931886563581215,  0.522048306729388 ]
    mass: 6.940000
  - symbol: Li # 2
    coordinates: [  0.030248081232619,  0.261809363125639,  0.522046905868900 ]
    mass: 6.940000
  - symbol: Li # 3
    coordinates: [  0.031082338750995,  0.601044321089146,  0.021936938217399 ]
    mass: 6.940000
  - symbol: Li # 4
    coordinates: [  0.360954630136201,  0.930957651452781,  0.021930892256390 ]
    mass: 6.940000
  - symbol: Sn # 5
    coordinates: [  0.367749384369011,  0.594395043001928,  0.521965511991661 ]
    mass: 118.710000
  - symbol: Sn # 6
    coordinates: [  0.693592001636419,  0.268440730418631,  0.022016906093870 ]
    mass: 118.710000
  reciprocal_lattice: # without 2pi
  - [    -0.000000000000000,    -0.196901086747490,    -0.103592771653557 ] # a*
  - [    -0.000000000000000,    -0.000000000000000,     0.222470202066312 ] # b*
  - [    -0.194788837174061,     0.000000812067531,     0.000000266510794 ] # c*

unit_cell:
  lattice:
  - [     5.133764411286124,     0.000000000000000,     0.000000000000000 ] # a
  - [     0.000021172881563,     5.078692131762690,     0.000000000000000 ] # b
  - [    -0.000003709053377,    -2.364882080466626,     4.494984005552034 ] # c
  points:
  - symbol: Li # 1
    coordinates: [  0.477951693270612,  0.299614829610778,  0.931886563581215 ]
    mass: 6.940000
    reduced_to: 1
  - symbol: Li # 2
    coordinates: [  0.477953094131100,  0.969751918767381,  0.261809363125639 ]
    mass: 6.940000
    reduced_to: 2
  - symbol: Li # 3
    coordinates: [  0.978063061782601,  0.968917661249005,  0.601044321089146 ]
    mass: 6.940000
    reduced_to: 3
  - symbol: Li # 4
    coordinates: [  0.978069107743610,  0.639045369863799,  0.930957651452781 ]
    mass: 6.940000
    reduced_to: 4
  - symbol: Sn # 5
    coordinates: [  0.478034488008339,  0.632250615630989,  0.594395043001928 ]
    mass: 118.710000
    reduced_to: 5
  - symbol: Sn # 6
    coordinates: [  0.977983093906130,  0.306407998363581,  0.268440730418631 ]
    mass: 118.710000
    reduced_to: 6

supercell:
  lattice:
  - [    10.267528822572249,     0.000000000000000,     0.000000000000000 ] # a
  - [     0.000042345763125,    10.157384263525380,     0.000000000000000 ] # b
  - [    -0.000007418106754,    -4.729764160933253,     8.989968011104068 ] # c
  points:
  - symbol: Li # 1
    coordinates: [  0.238975846635306,  0.149807414805389,  0.465943281790608 ]
    mass: 6.940000
    reduced_to: 1
  - symbol: Li # 2
    coordinates: [  0.738975846635306,  0.149807414805389,  0.465943281790608 ]
    mass: 6.940000
    reduced_to: 1
  - symbol: Li # 3
    coordinates: [  0.238975846635306,  0.649807414805389,  0.465943281790608 ]
    mass: 6.940000
    reduced_to: 1
  - symbol: Li # 4
    coordinates: [  0.738975846635306,  0.649807414805389,  0.465943281790608 ]
    mass: 6.940000
    reduced_to: 1
  - symbol: Li # 5
    coordinates: [  0.238975846635306,  0.149807414805389,  0.965943281790608 ]
    mass: 6.940000
    reduced_to: 1
  - symbol: Li # 6
    coordinates: [  0.738975846635306,  0.149807414805389,  0.965943281790608 ]
    mass: 6.940000
    reduced_to: 1
  - symbol: Li # 7
    coordinates: [  0.238975846635306,  0.649807414805389,  0.965943281790608 ]
    mass: 6.940000
    reduced_to: 1
  - symbol: Li # 8
    coordinates: [  0.738975846635306,  0.649807414805389,  0.965943281790608 ]
    mass: 6.940000
    reduced_to: 1
  - symbol: Li # 9
    coordinates: [  0.238976547065550,  0.484875959383691,  0.130904681562819 ]
    mass: 6.940000
    reduced_to: 9
  - symbol: Li # 10
    coordinates: [  0.738976547065550,  0.484875959383691,  0.130904681562819 ]
    mass: 6.940000
    reduced_to: 9
  - symbol: Li # 11
    coordinates: [  0.238976547065550,  0.984875959383691,  0.130904681562819 ]
    mass: 6.940000
    reduced_to: 9
  - symbol: Li # 12
    coordinates: [  0.738976547065550,  0.984875959383691,  0.130904681562819 ]
    mass: 6.940000
    reduced_to: 9
  - symbol: Li # 13
    coordinates: [  0.238976547065550,  0.484875959383691,  0.630904681562819 ]
    mass: 6.940000
    reduced_to: 9
  - symbol: Li # 14
    coordinates: [  0.738976547065550,  0.484875959383691,  0.630904681562819 ]
    mass: 6.940000
    reduced_to: 9
  - symbol: Li # 15
    coordinates: [  0.238976547065550,  0.984875959383691,  0.630904681562819 ]
    mass: 6.940000
    reduced_to: 9
  - symbol: Li # 16
    coordinates: [  0.738976547065550,  0.984875959383691,  0.630904681562819 ]
    mass: 6.940000
    reduced_to: 9
  - symbol: Li # 17
    coordinates: [  0.489031530891301,  0.484458830624502,  0.300522160544573 ]
    mass: 6.940000
    reduced_to: 17
  - symbol: Li # 18
    coordinates: [  0.989031530891301,  0.484458830624502,  0.300522160544573 ]
    mass: 6.940000
    reduced_to: 17
  - symbol: Li # 19
    coordinates: [  0.489031530891301,  0.984458830624502,  0.300522160544573 ]
    mass: 6.940000
    reduced_to: 17
  - symbol: Li # 20
    coordinates: [  0.989031530891301,  0.984458830624502,  0.300522160544573 ]
    mass: 6.940000
    reduced_to: 17
  - symbol: Li # 21
    coordinates: [  0.489031530891301,  0.484458830624502,  0.800522160544573 ]
    mass: 6.940000
    reduced_to: 17
  - symbol: Li # 22
    coordinates: [  0.989031530891301,  0.484458830624502,  0.800522160544573 ]
    mass: 6.940000
    reduced_to: 17
  - symbol: Li # 23
    coordinates: [  0.489031530891301,  0.984458830624502,  0.800522160544573 ]
    mass: 6.940000
    reduced_to: 17
  - symbol: Li # 24
    coordinates: [  0.989031530891301,  0.984458830624502,  0.800522160544573 ]
    mass: 6.940000
    reduced_to: 17
  - symbol: Li # 25
    coordinates: [  0.489034553871805,  0.319522684931900,  0.465478825726390 ]
    mass: 6.940000
    reduced_to: 25
  - symbol: Li # 26
    coordinates: [  0.989034553871805,  0.319522684931900,  0.465478825726390 ]
    mass: 6.940000
    reduced_to: 25
  - symbol: Li # 27
    coordinates: [  0.489034553871805,  0.819522684931900,  0.465478825726390 ]
    mass: 6.940000
    reduced_to: 25
  - symbol: Li # 28
    coordinates: [  0.989034553871805,  0.819522684931900,  0.465478825726390 ]
    mass: 6.940000
    reduced_to: 25
  - symbol: Li # 29
    coordinates: [  0.489034553871805,  0.319522684931900,  0.965478825726390 ]
    mass: 6.940000
    reduced_to: 25
  - symbol: Li # 30
    coordinates: [  0.989034553871805,  0.319522684931900,  0.965478825726390 ]
    mass: 6.940000
    reduced_to: 25
  - symbol: Li # 31
    coordinates: [  0.489034553871805,  0.819522684931900,  0.965478825726390 ]
    mass: 6.940000
    reduced_to: 25
  - symbol: Li # 32
    coordinates: [  0.989034553871805,  0.819522684931900,  0.965478825726390 ]
    mass: 6.940000
    reduced_to: 25
  - symbol: Sn # 33
    coordinates: [  0.239017244004169,  0.316125307815494,  0.297197521500964 ]
    mass: 118.710000
    reduced_to: 33
  - symbol: Sn # 34
    coordinates: [  0.739017244004169,  0.316125307815494,  0.297197521500964 ]
    mass: 118.710000
    reduced_to: 33
  - symbol: Sn # 35
    coordinates: [  0.239017244004169,  0.816125307815494,  0.297197521500964 ]
    mass: 118.710000
    reduced_to: 33
  - symbol: Sn # 36
    coordinates: [  0.739017244004169,  0.816125307815494,  0.297197521500964 ]
    mass: 118.710000
    reduced_to: 33
  - symbol: Sn # 37
    coordinates: [  0.239017244004169,  0.316125307815494,  0.797197521500964 ]
    mass: 118.710000
    reduced_to: 33
  - symbol: Sn # 38
    coordinates: [  0.739017244004169,  0.316125307815494,  0.797197521500964 ]
    mass: 118.710000
    reduced_to: 33
  - symbol: Sn # 39
    coordinates: [  0.239017244004169,  0.816125307815494,  0.797197521500964 ]
    mass: 118.710000
    reduced_to: 33
  - symbol: Sn # 40
    coordinates: [  0.739017244004169,  0.816125307815494,  0.797197521500964 ]
    mass: 118.710000
    reduced_to: 33
  - symbol: Sn # 41
    coordinates: [  0.488991546953065,  0.153203999181791,  0.134220365209316 ]
    mass: 118.710000
    reduced_to: 41
  - symbol: Sn # 42
    coordinates: [  0.988991546953065,  0.153203999181791,  0.134220365209316 ]
    mass: 118.710000
    reduced_to: 41
  - symbol: Sn # 43
    coordinates: [  0.488991546953065,  0.653203999181791,  0.134220365209316 ]
    mass: 118.710000
    reduced_to: 41
  - symbol: Sn # 44
    coordinates: [  0.988991546953065,  0.653203999181791,  0.134220365209316 ]
    mass: 118.710000
    reduced_to: 41
  - symbol: Sn # 45
    coordinates: [  0.488991546953065,  0.153203999181791,  0.634220365209316 ]
    mass: 118.710000
    reduced_to: 41
  - symbol: Sn # 46
    coordinates: [  0.988991546953065,  0.153203999181791,  0.634220365209316 ]
    mass: 118.710000
    reduced_to: 41
  - symbol: Sn # 47
    coordinates: [  0.488991546953065,  0.653203999181791,  0.634220365209316 ]
    mass: 118.710000
    reduced_to: 41
  - symbol: Sn # 48
    coordinates: [  0.988991546953065,  0.653203999181791,  0.634220365209316 ]
    mass: 118.710000
    reduced_to: 41

displacements:
- atom:    1
  displacement:
    [   0.0100000000000000,  0.0000000000000000,  0.0000000000000000 ]
  forces:
  - [  -0.0134803000837564, -0.0116193592548370, -0.0190672799944878 ]
  - [   0.0017384234815836, -0.0116474442183971, -0.0190004929900169 ]
  - [   0.0004053671727888, -0.0116493143141270, -0.0189963653683662 ]
  - [   0.0005323152872734, -0.0116487145423889, -0.0189996212720871 ]
  - [   0.0003181917709298, -0.0116509832441807, -0.0189982727169991 ]
  - [   0.0006276236963458, -0.0116488225758076, -0.0189983472228050 ]
  - [   0.0005301047349349, -0.0116476006805897, -0.0189989358186722 ]
  - [   0.0004983837716281, -0.0116490274667740, -0.0189975202083588 ]
  - [   0.0004185795551166, -0.0111425891518593, -0.0197559297084808 ]
  - [   0.0005516937235370, -0.0111420452594757, -0.0197561196982861 ]
  - [   0.0002570477081463, -0.0111419409513474, -0.0197444111108780 ]
  - [   0.0004043990338687, -0.0111431330442429, -0.0197568088769913 ]
  - [   0.0002569287898950, -0.0111515000462532, -0.0197610780596733 ]
  - [   0.0004058467748109, -0.0111432671546936, -0.0197548419237137 ]
  - [   0.0014418017817661, -0.0111260935664177, -0.0197631046175957 ]
  - [   0.0001736110425554, -0.0111428052186966, -0.0197525247931480 ]
  - [  -0.0003158413164783,  0.0111910253763199,  0.0196681637316942 ]
  - [  -0.0003180070489179,  0.0110486596822739,  0.0195877477526665 ]
  - [   0.0014599668793380,  0.0098272413015366,  0.0182806570082903 ]
  - [   0.0014303920324892,  0.0123897641897202,  0.0209472719579935 ]
  - [  -0.0008269535610452,  0.0110740363597870,  0.0196197610348463 ]
  - [  -0.0008253162959591,  0.0111694037914276,  0.0196371208876371 ]
  - [  -0.0003175348683726,  0.0114830508828163,  0.0194847211241722 ]
  - [  -0.0003169030824210,  0.0107581540942192,  0.0197724699974060 ]
  - [   0.0015566587680951,  0.0134293958544731,  0.0188795030117035 ]
  - [   0.0015249265125021,  0.0099725760519505,  0.0190150961279869 ]
  - [  -0.0008916914230213,  0.0120321400463581,  0.0189367234706879 ]
  - [  -0.0008880068198778,  0.0113325379788876,  0.0189637988805771 ]
  - [  -0.0004803625924978,  0.0117222219705582,  0.0187027156352997 ]
  - [  -0.0004825953219552,  0.0116369109600782,  0.0191986486315727 ]
  - [  -0.0004763725737575,  0.0116493031382561,  0.0189031660556793 ]
  - [  -0.0004761329328176,  0.0117108747363091,  0.0189995542168617 ]
  - [   0.0000386892643292,  0.0241713058203459,  0.0403898805379868 ]
  - [  -0.0003349047619849,  0.0241874698549509,  0.0403797179460526 ]
  - [   0.0004468490660656,  0.0242009460926056,  0.0403846204280853 ]
  - [  -0.0006423223530874,  0.0241872519254684,  0.0403773635625839 ]
  - [  -0.0004765189369209,  0.0241869688034058,  0.0403706952929497 ]
  - [  -0.0016658257227391,  0.0241817291826010,  0.0403744913637638 ]
  - [  -0.0003680787922349,  0.0241872519254684,  0.0403787381947041 ]
  - [  -0.0003575399168767,  0.0241880249232054,  0.0403812453150749 ]
  - [  -0.0001108681317419, -0.0246017668396235, -0.0398338772356510 ]
  - [  -0.0000993954017758, -0.0237965472042561, -0.0405588671565056 ]
  - [   0.0005662294570357, -0.0242216810584068, -0.0402742996811867 ]
  - [   0.0005701052141376, -0.0241690594702959, -0.0401313900947571 ]
  - [   0.0036456896923482, -0.0261740311980247, -0.0376913733780384 ]
  - [   0.0035360110923648, -0.0222648642957211, -0.0426335334777832 ]
  - [   0.0004067890695296, -0.0242124292999506, -0.0402414500713348 ]
  - [   0.0004088402492926, -0.0241832099854946, -0.0401674024760723 ]
- atom:    1
  displacement:
    [  -0.0100000000000000,  0.0000000000000000,  0.0000000000000000 ]
  forces:
  - [   0.0144980140030384, -0.0116261169314384, -0.0190608575940132 ]
  - [  -0.0007212474010885, -0.0116476919502020, -0.0189994722604752 ]
  - [   0.0006120714824647, -0.0116502065211535, -0.0189955085515976 ]
  - [   0.0004836584557779, -0.0116487406194210, -0.0189997032284737 ]
  - [   0.0006996391457506, -0.0116507187485695, -0.0189993083477020 ]
  - [   0.0003888316568919, -0.0116484649479389, -0.0189984440803528 ]
  - [   0.0004869499243796, -0.0116476435214281, -0.0189997330307961 ]
  - [   0.0005169757641852, -0.0116491448134184, -0.0189977735280991 ]
  - [   0.0005880531389266, -0.0111428201198578, -0.0197560600936413 ]
  - [   0.0004554160404950, -0.0111421719193459, -0.0197562873363495 ]
  - [   0.0007507131085731, -0.0111416429281235, -0.0197447445243597 ]
  - [   0.0006019251886755, -0.0111427009105682, -0.0197569075971842 ]
  - [   0.0007512029260397, -0.0111522302031517, -0.0197613276541233 ]
  - [   0.0006017637206241, -0.0111436396837234, -0.0197541788220406 ]
  - [  -0.0004336268175393, -0.0111251845955849, -0.0197636522352695 ]
  - [   0.0008332338184118, -0.0111417025327682, -0.0197523776441813 ]
  - [  -0.0006617357721552,  0.0110473632812500,  0.0195873882621527 ]
  - [  -0.0006645013345405,  0.0111922770738602,  0.0196687914431095 ]
  - [  -0.0024063081946224,  0.0123859718441963,  0.0209439769387245 ]
  - [  -0.0024441133718938,  0.0098237544298172,  0.0182776395231485 ]
  - [  -0.0001564657723065,  0.0111700892448425,  0.0196372028440237 ]
  - [  -0.0001547280699015,  0.0110751241445541,  0.0196196846663952 ]
  - [  -0.0006634738529101,  0.0107547864317894,  0.0197726972401142 ]
  - [  -0.0006631526630372,  0.0114836394786835,  0.0194858647882938 ]
  - [  -0.0025734645314515,  0.0099789835512638,  0.0190126225352287 ]
  - [  -0.0026146131567657,  0.0134354270994663,  0.0188795179128647 ]
  - [  -0.0001652489881963,  0.0113334134221077,  0.0189635530114174 ]
  - [  -0.0001602141419426,  0.0120332464575768,  0.0189362615346909 ]
  - [  -0.0005700347246602,  0.0116367526352406,  0.0191991031169891 ]
  - [  -0.0005735809099860,  0.0117223020642996,  0.0187043845653534 ]
  - [  -0.0005761657375842,  0.0117110479623079,  0.0189975202083588 ]
  - [  -0.0005759864579886,  0.0116487964987755,  0.0189050287008286 ]
  - [  -0.0007052180008031,  0.0241672396659851,  0.0403934121131897 ]
  - [  -0.0003376679960638,  0.0241879224777222,  0.0403793752193451 ]
  - [  -0.0011193366954103,  0.0242064651101828,  0.0403873696923256 ]
  - [  -0.0000280531239696,  0.0241867955774069,  0.0403771847486496 ]
  - [  -0.0001898925984278,  0.0241872034966946,  0.0403667390346527 ]
  - [   0.0009997766464949,  0.0241783224046230,  0.0403717234730721 ]
  - [  -0.0002978280826937,  0.0241873580962420,  0.0403786264359951 ]
  - [  -0.0003154463192914,  0.0241881255060434,  0.0403811484575272 ]
  - [   0.0007774092955515, -0.0237958580255508, -0.0405564233660698 ]
  - [   0.0007894977461547, -0.0246024727821350, -0.0398342162370682 ]
  - [   0.0001100284862332, -0.0241692382842302, -0.0401310846209526 ]
  - [   0.0001162411645055, -0.0242208018898964, -0.0402725636959076 ]
  - [  -0.0028573353774846, -0.0222638249397278, -0.0426338836550713 ]
  - [  -0.0029729206580669, -0.0261736232787371, -0.0376934111118317 ]
  - [   0.0002692717825994, -0.0241814740002155, -0.0401659868657589 ]
  - [   0.0002716833259910, -0.0242142584174871, -0.0402429141104221 ]
- atom:    1
  displacement:
    [   0.0000000416896339,  0.0099999999999131,  0.0000000000000000 ]
  forces:
  - [   0.0005122337024659, -0.0355584174394608, -0.0154250040650368 ]
  - [   0.0005086762830615, -0.0117083992809057, -0.0189167857170105 ]
  - [   0.0005091684870422, -0.0116726160049438, -0.0189167782664299 ]
  - [   0.0005080027040094, -0.0116874836385250, -0.0189751386642456 ]
  - [   0.0005086073069833, -0.0112174712121487, -0.0185413956642151 ]
  - [   0.0005081263952889, -0.0116411931812763, -0.0189897194504738 ]
  - [   0.0005085154552944, -0.0110535621643066, -0.0192300900816917 ]
  - [   0.0005077256355435, -0.0117656923830509, -0.0189493671059608 ]
  - [   0.0005033175693825, -0.0129174068570137, -0.0198053773492575 ]
  - [   0.0005034728092141, -0.0110161229968071, -0.0198233909904957 ]
  - [   0.0005038975505158, -0.0114991292357445, -0.0199629403650761 ]
  - [   0.0005028803134337, -0.0110128596425056, -0.0198778323829174 ]
  - [   0.0005042648408562, -0.0077481642365456, -0.0179860498756170 ]
  - [   0.0005040795076638, -0.0111937224864960, -0.0199724733829498 ]
  - [   0.0005046177539043, -0.0071802884340286, -0.0228863656520844 ]
  - [   0.0005035201902501, -0.0110651776194572, -0.0197771936655045 ]
  - [  -0.0007895430317149,  0.0110512226819992,  0.0195536576211452 ]
  - [  -0.0001918198831845,  0.0110532119870186,  0.0195536762475967 ]
  - [  -0.0010744656901807,  0.0111456736922264,  0.0199679005891085 ]
  - [   0.0000953845446929,  0.0111459642648697,  0.0199694409966469 ]
  - [  -0.0004777090216521,  0.0110207572579384,  0.0194223318248987 ]
  - [  -0.0005036536022089,  0.0110209956765175,  0.0194213073700666 ]
  - [  -0.0004896828322671,  0.0111719667911530,  0.0196179188787937 ]
  - [  -0.0004909569397569,  0.0111750736832619,  0.0196181163191795 ]
  - [   0.0012104955967516,  0.0126930214464664,  0.0190245360136032 ]
  - [  -0.0022699888795614,  0.0126950033009052,  0.0190264210104942 ]
  - [  -0.0001856445160229,  0.0113045126199722,  0.0189538747072220 ]
  - [  -0.0008678854792379,  0.0113038681447506,  0.0189539715647697 ]
  - [  -0.0004822142072953,  0.0117209013551474,  0.0188232734799385 ]
  - [  -0.0005707859527320,  0.0117204170674086,  0.0188237279653549 ]
  - [  -0.0005576559342444,  0.0117162521928549,  0.0189792886376381 ]
  - [  -0.0004946707049385,  0.0117159429937601,  0.0189812034368515 ]
  - [  -0.0003318873932585,  0.0336338803172112,  0.0358388833701611 ]
  - [  -0.0003364315198269,  0.0241280663758516,  0.0404904410243034 ]
  - [  -0.0003371554194018,  0.0304806753993034,  0.0436877459287643 ]
  - [  -0.0003353946958669,  0.0242017079144716,  0.0405010133981705 ]
  - [  -0.0003332337655593,  0.0242458060383797,  0.0406059063971043 ]
  - [  -0.0003349398029968,  0.0243100989609957,  0.0407394766807556 ]
  - [  -0.0003329305909574,  0.0234868079423904,  0.0402480103075504 ]
  - [  -0.0003362937131897,  0.0241872482001781,  0.0403083339333534 ]
  - [   0.0003905711928383, -0.0244228690862656, -0.0402624607086182 ]
  - [   0.0002895190846175, -0.0244237035512924, -0.0402634888887405 ]
  - [   0.0000239715445787, -0.0241199154406786, -0.0400087572634220 ]
  - [   0.0006578433676623, -0.0241196025162935, -0.0400080531835556 ]
  - [  -0.0004715045797639, -0.0234901383519173, -0.0411580875515938 ]
  - [   0.0011490078177303, -0.0234902240335941, -0.0411593466997147 ]
  - [   0.0003624213277362, -0.0241613611578941, -0.0401065051555634 ]
  - [   0.0003161111380905, -0.0241634976118803, -0.0401078164577484 ]
- atom:    1
  displacement:
    [  -0.0000000416896339, -0.0099999999999131,  0.0000000000000000 ]
  forces:
  - [   0.0005050408653915,  0.0121444612741470, -0.0222274661064148 ]
  - [   0.0005086157470942, -0.0115873515605927, -0.0190790146589279 ]
  - [   0.0005082957213745, -0.0116256326436996, -0.0190800279378891 ]
  - [   0.0005080108530819, -0.0116104874759912, -0.0190244466066360 ]
  - [   0.0005089660990052, -0.0120841972529888, -0.0194494947791100 ]
  - [   0.0005084422882646, -0.0116582456976175, -0.0190052986145020 ]
  - [   0.0005084532895125, -0.0122388135641813, -0.0187578648328781 ]
  - [   0.0005077106761746, -0.0115307066589594, -0.0190463960170746 ]
  - [   0.0005032790359110, -0.0093683972954750, -0.0197253860533237 ]
  - [   0.0005034852074459, -0.0112697184085846, -0.0196876619011164 ]
  - [   0.0005038945819251, -0.0107879117131233, -0.0195443928241730 ]
  - [   0.0005033931811340, -0.0112720504403114, -0.0196338966488838 ]
  - [   0.0005039814859629, -0.0144679546356201, -0.0214782543480396 ]
  - [   0.0005038364324719, -0.0110938847064972, -0.0195397399365902 ]
  - [   0.0005036065122113, -0.0151772126555443, -0.0165579691529274 ]
  - [   0.0005032523185946, -0.0112230032682419, -0.0197346061468124 ]
  - [  -0.0001946770062204,  0.0111820250749588,  0.0197015330195427 ]
  - [  -0.0007842286722735,  0.0111826360225677,  0.0197025444358587 ]
  - [   0.0000880196312210,  0.0110996589064598,  0.0192917250096798 ]
  - [  -0.0010692385258153,  0.0110996216535568,  0.0192904379218817 ]
  - [  -0.0005068131722510,  0.0112203732132912,  0.0198311805725098 ]
  - [  -0.0004750803054776,  0.0112206563353539,  0.0198317319154739 ]
  - [  -0.0004948060959578,  0.0110624432563782,  0.0196395963430405 ]
  - [  -0.0004855834704358,  0.0110636427998543,  0.0196404978632927 ]
  - [  -0.0022394687402993,  0.0106731057167053,  0.0188698917627335 ]
  - [   0.0011924826540053,  0.0106707215309143,  0.0188709422945976 ]
  - [  -0.0008842619135976,  0.0120644271373749,  0.0189436599612236 ]
  - [  -0.0001671558420639,  0.0120650976896286,  0.0189434215426445 ]
  - [  -0.0005677169538103,  0.0116396583616734,  0.0190804302692413 ]
  - [  -0.0004857126041315,  0.0116402022540569,  0.0190811231732368 ]
  - [  -0.0004958846839145,  0.0116448290646076,  0.0189216658473015 ]
  - [  -0.0005565651808865,  0.0116444248706102,  0.0189235582947731 ]
  - [  -0.0003349132311996,  0.0150505099445581,  0.0447114109992981 ]
  - [  -0.0003366890596226,  0.0242458600550890,  0.0402665510773659 ]
  - [  -0.0003347117162775,  0.0176478568464518,  0.0369117707014084 ]
  - [  -0.0003355387598276,  0.0241722390055656,  0.0402580574154854 ]
  - [  -0.0003331506741233,  0.0241290517151356,  0.0400913432240486 ]
  - [  -0.0003318965318613,  0.0240603834390640,  0.0400137715041637 ]
  - [  -0.0003330776817165,  0.0248806178569794,  0.0405132472515106 ]
  - [  -0.0003363005525898,  0.0241892635822296,  0.0404529199004173 ]
  - [   0.0002815264160745, -0.0239642150700092, -0.0401400700211525 ]
  - [   0.0003957987646572, -0.0239652004092932, -0.0401427075266838 ]
  - [   0.0006498247967102, -0.0242733452469110, -0.0403986983001232 ]
  - [   0.0000310465693474, -0.0242727790027857, -0.0403984189033508 ]
  - [   0.0011204818729311, -0.0248792227357626, -0.0392649509012699 ]
  - [  -0.0004455538582988, -0.0248796753585339, -0.0392659902572632 ]
  - [   0.0003081216127612, -0.0242310203611851, -0.0402994267642498 ]
  - [   0.0003694813349284, -0.0242327135056257, -0.0403007976710796 ]
- atom:    1
  displacement:
    [  -0.0000000073025387, -0.0046560782664611,  0.0088499115914530 ]
  forces:
  - [   0.0005045467987657,  0.0023325793445110, -0.0423180200159550 ]
  - [   0.0005083051510155, -0.0115473680198193, -0.0191687643527985 ]
  - [   0.0005081284325570, -0.0115714892745018, -0.0183450728654861 ]
  - [   0.0005079085240141, -0.0116092599928379, -0.0189729556441307 ]
  - [   0.0005092595820315, -0.0114495866000652, -0.0192151963710785 ]
  - [   0.0005083253490739, -0.0116467252373695, -0.0190718770027161 ]
  - [   0.0005088043981232, -0.0121391508728266, -0.0187541618943214 ]
  - [   0.0005077654495835, -0.0115513168275356, -0.0189547985792160 ]
  - [   0.0005033906199969, -0.0106646344065666, -0.0215137321501970 ]
  - [   0.0005036913207732, -0.0112239792943001, -0.0196560006588697 ]
  - [   0.0005043848650530, -0.0108388736844063, -0.0158367957919836 ]
  - [   0.0005033191409893, -0.0111157894134521, -0.0198000408709049 ]
  - [   0.0005041367840022, -0.0108364373445511, -0.0199995301663876 ]
  - [   0.0005037635564804, -0.0111185535788536, -0.0195956788957119 ]
  - [   0.0005037494702265, -0.0146480798721313, -0.0170466713607311 ]
  - [   0.0005029724561609, -0.0111097395420074, -0.0196469910442829 ]
  - [  -0.0001298181305174,  0.0112082883715630,  0.0197376050055027 ]
  - [  -0.0008489652536809,  0.0112085863947868,  0.0197388809174299 ]
  - [  -0.0017792091239244,  0.0117629021406174,  0.0200027897953987 ]
  - [   0.0008027730509639,  0.0117650926113129,  0.0200045593082905 ]
  - [  -0.0005401212256402,  0.0112065002322197,  0.0195616483688354 ]
  - [  -0.0004424984217621,  0.0112071782350540,  0.0195615794509649 ]
  - [  -0.0004203313437756,  0.0112077817320824,  0.0196029953658581 ]
  - [  -0.0005602763849311,  0.0112091451883316,  0.0196038074791431 ]
  - [  -0.0013928250409663,  0.0112768225371838,  0.0186558887362480 ]
  - [   0.0003433734818827,  0.0112760066986084,  0.0186552181839943 ]
  - [  -0.0007039796910249,  0.0118625611066818,  0.0189888849854469 ]
  - [  -0.0003478731377982,  0.0118632540106773,  0.0189886465668678 ]
  - [  -0.0007656877278350,  0.0115483980625868,  0.0190686881542206 ]
  - [  -0.0002884989080485,  0.0115486960858107,  0.0190698504447937 ]
  - [  -0.0005550779751502,  0.0116896647959948,  0.0190875232219696 ]
  - [  -0.0004975343472324,  0.0116892643272877,  0.0190895423293114 ]
  - [  -0.0003357481909916,  0.0146302394568920,  0.0456273630261421 ]
  - [  -0.0003364445292391,  0.0242046918720007,  0.0402694568037987 ]
  - [  -0.0003354944929015,  0.0239166021347046,  0.0407815575599670 ]
  - [  -0.0003352109924890,  0.0239789895713329,  0.0402145944535732 ]
  - [  -0.0003316167276353,  0.0238220896571875,  0.0492050088942051 ]
  - [  -0.0003312399785500,  0.0240311026573181,  0.0397708490490913 ]
  - [  -0.0003329392347950,  0.0244462229311466,  0.0397495999932289 ]
  - [  -0.0003363108844496,  0.0241326391696930,  0.0404185876250267 ]
  - [   0.0006199897616170, -0.0236944239586592, -0.0403791069984436 ]
  - [   0.0000571671989746, -0.0236949641257524, -0.0403816848993301 ]
  - [   0.0004023347282782, -0.0241810753941536, -0.0401112213730812 ]
  - [   0.0002783501986414, -0.0241808686405420, -0.0401106551289558 ]
  - [   0.0028600827790797, -0.0259342454373837, -0.0380245782434940 ]
  - [  -0.0021870129276067, -0.0259349923580885, -0.0380243770778179 ]
  - [   0.0002347299596295, -0.0241659767925739, -0.0402629561722279 ]
  - [   0.0004434441216290, -0.0241677407175303, -0.0402642488479614 ]
- atom:    1
  displacement:
    [   0.0000000073025387,  0.0046560782664611, -0.0088499115914530 ]
  forces:
  - [   0.0005133145023137, -0.0258979611098766,  0.0041192471981049 ]
  - [   0.0005091461353004, -0.0117472633719444, -0.0188263729214668 ]
  - [   0.0005093675572425, -0.0117379426956177, -0.0196543261408806 ]
  - [   0.0005079604452476, -0.0116887912154198, -0.0190260931849480 ]
  - [   0.0005082685966045, -0.0118497014045715, -0.0187832489609718 ]
  - [   0.0005081023555249, -0.0116524100303650, -0.0189232528209686 ]
  - [   0.0005081322160549, -0.0111691821366549, -0.0192520022392273 ]
  - [   0.0005076600355096, -0.0117467734962702, -0.0190393328666687 ]
  - [   0.0005032678018324, -0.0115988031029701, -0.0179921556264162 ]
  - [   0.0005034856731072, -0.0110584869980812, -0.0198555067181587 ]
  - [   0.0005035171052441, -0.0114642530679703, -0.0237588882446289 ]
  - [   0.0005030407337472, -0.0111674442887306, -0.0197133813053370 ]
  - [   0.0005042064003646, -0.0114627927541733, -0.0195258930325508 ]
  - [   0.0005040122196078, -0.0111693888902664, -0.0199153311550617 ]
  - [   0.0005047084996477, -0.0077221095561981, -0.0224397927522659 ]
  - [   0.0005038893432356, -0.0111793726682663, -0.0198612250387669 ]
  - [  -0.0008585435571149,  0.0110236033797264,  0.0195175334811211 ]
  - [  -0.0001229368499480,  0.0110258683562279,  0.0195174850523472 ]
  - [   0.0007827458903193,  0.0104727745056152,  0.0192690342664719 ]
  - [  -0.0017665759660304,  0.0104707926511765,  0.0192677099257708 ]
  - [  -0.0004442579811439,  0.0110332071781158,  0.0196961164474487 ]
  - [  -0.0005365332472138,  0.0110326632857323,  0.0196956954896450 ]
  - [  -0.0005634919507429,  0.0110239908099174,  0.0196537747979164 ]
  - [  -0.0004170019819867,  0.0110269188880920,  0.0196539871394634 ]
  - [   0.0003310780739412,  0.0120805688202381,  0.0192445516586304 ]
  - [  -0.0013884492218494,  0.0120810568332672,  0.0192479193210602 ]
  - [  -0.0003547229280230,  0.0114999003708363,  0.0189156904816628 ]
  - [  -0.0006986547959968,  0.0114994347095490,  0.0189155042171478 ]
  - [  -0.0002868766023312,  0.0118138901889324,  0.0188364386558533 ]
  - [  -0.0007654028013349,  0.0118137057870626,  0.0188362225890160 ]
  - [  -0.0005001575918868,  0.0116717368364334,  0.0188125446438789 ]
  - [  -0.0005520887207240,  0.0116714462637901,  0.0188144594430923 ]
  - [  -0.0003308951854706,  0.0341032892465591,  0.0349765121936798 ]
  - [  -0.0003361203416716,  0.0241713970899582,  0.0404879748821259 ]
  - [  -0.0003367705794517,  0.0245120748877525,  0.0400051437318325 ]
  - [  -0.0003350411425345,  0.0243959221988916,  0.0405435971915722 ]