# Thermal properties / unit cell (natom)

unit:
  temperature:   K
  free_energy:   kJ/mol
  entropy:       J/K/mol
  heat_capacity: J/K/mol

natom: 12   
cutoff_frequency: 0.00000
num_modes: 628452
num_integrated_modes: 628449

zero_point_energy:      34.1306386

thermal_properties:
- temperature:         0.0000000
  free_energy:        34.1306386
  entropy:             0.0000000
  heat_capacity:       0.0000000
  energy:             34.1306386

- temperature:        10.0000000
  free_energy:        34.1273153
  entropy:             1.4178337
  heat_capacity:       4.7058048
  energy:             34.1414936

- temperature:        20.0000000
  free_energy:        34.0691595
  entropy:            12.2779783
  heat_capacity:      33.5128301
  energy:             34.3147191

- temperature:        30.0000000
  free_energy:        33.8494687
  entropy:            32.6598430
  heat_capacity:      68.4620166
  energy:             34.8292640

- temperature:        40.0000000
  free_energy:        33.4056092
  entropy:            56.2971557
  heat_capacity:      95.9500080
  energy:             35.6574955

- temperature:        50.0000000
  free_energy:        32.7231087
  entropy:            80.1285126
  heat_capacity:     117.7948455
  energy:             36.7295343

- temperature:        60.0000000
  free_energy:        31.8052728
  entropy:           103.3087813
  heat_capacity:     136.7027527
  energy:             38.0037997

- temperature:        70.0000000
  free_energy:        30.6596204
  entropy:           125.6864070
  heat_capacity:     153.8072419
  energy:             39.4576688

- temperature:        80.0000000
  free_energy:        29.2942329
  entropy:           147.2576906
  heat_capacity:     169.3757676
  energy:             41.0748481

- temperature:        90.0000000
  free_energy:        27.7171189
  entropy:           168.0330978
  heat_capacity:     183.4188572
  energy:             42.8400977

- temperature:       100.0000000
  free_energy:        25.9362011
  entropy:           188.0194932
  heat_capacity:     195.9415778
  energy:             44.7381504

- temperature:       110.0000000
  free_energy:        23.9593334
  entropy:           207.2247718
  heat_capacity:     207.0046574
  energy:             46.7540583

- temperature:       120.0000000
  free_energy:        21.7942657
  entropy:           225.6622719
  heat_capacity:     216.7170115
  energy:             48.8737383

- temperature:       130.0000000
  free_energy:        19.4485811
  entropy:           243.3520327
  heat_capacity:     225.2136214
  energy:             51.0843453

- temperature:       140.0000000
  free_energy:        16.9296315
  entropy:           260.3200099
  heat_capacity:     232.6366760
  energy:             53.3744329

- temperature:       150.0000000
  free_energy:        14.2444862
  entropy:           276.5964870
  heat_capacity:     239.1234495
  energy:             55.7339592

- temperature:       160.0000000
  free_energy:        11.3998971
  entropy:           292.2144072
  heat_capacity:     244.7998559
  energy:             58.1542022

- temperature:       170.0000000
  free_energy:         8.4022793
  entropy:           307.2079440
  heat_capacity:     249.7778150
  energy:             60.6276298

- temperature:       180.0000000
  free_energy:         5.2577050
  entropy:           321.6113999
  heat_capacity:     254.1548736
  energy:             63.1477570

- temperature:       190.0000000
  free_energy:         1.9719060
  entropy:           335.4584190
  heat_capacity:     258.0150227
  energy:             65.7090056

- temperature:       200.0000000
  free_energy:        -1.4497169
  entropy:           348.7814593
  heat_capacity:     261.4300550
  energy:             68.3065749

- temperature:       210.0000000
  free_energy:        -5.0020799
  entropy:           361.6114651
  heat_capacity:     264.4610911
  energy:             70.9363277

- temperature:       220.0000000
  free_energy:        -8.6804005
  entropy:           373.9776875
  heat_capacity:     267.1600745
  energy:             73.5946908

- temperature:       230.0000000
  free_energy:       -12.4801796
  entropy:           385.9076077
  heat_capacity:     269.5711400
  energy:             76.2785702

- temperature:       240.0000000
  free_energy:       -16.3971842
  entropy:           397.4269323
  heat_capacity:     271.7318213
  energy:             78.9852796

- temperature:       250.0000000
  free_energy:       -20.4274296
  entropy:           408.5596351
  heat_capacity:     273.6740898
  energy:             81.7124791

- temperature:       260.0000000
  free_energy:       -24.5671627
  entropy:           419.3280286
  heat_capacity:     275.4252384
  energy:             84.4581247

- temperature:       270.0000000
  free_energy:       -28.8128451
  entropy:           429.7528526
  heat_capacity:     277.0086240
  energy:             87.2204250

- temperature:       280.0000000
  free_energy:       -33.1611389
  entropy:           439.8533715
  heat_capacity:     278.4442907
  energy:             89.9978051

- temperature:       290.0000000
  free_energy:       -37.6088913
  entropy:           449.6474743
  heat_capacity:     279.7494887
  energy:             92.7888762

- temperature:       300.0000000
  free_energy:       -42.1531225
  entropy:           459.1517745
  heat_capacity:     280.9391086
  energy:             95.5924099

- temperature:       310.0000000
  free_energy:       -46.7910124
  entropy:           468.3817054
  heat_capacity:     282.0260422
  energy:             98.4073163

- temperature:       320.0000000
  free_energy:       -51.5198899
  entropy:           477.3516121
  heat_capacity:     283.0214847
  energy:            101.2326259

- temperature:       330.0000000
  free_energy:       -56.3372225
  entropy:           486.0748367
  heat_capacity:     283.9351868
  energy:            104.0674737

- temperature:       340.0000000
  free_energy:       -61.2406059
  entropy:           494.5637988
  heat_capacity:     284.7756661
  energy:            106.9110857

- temperature:       350.0000000
  free_energy:       -66.2277562
  entropy:           502.8300688
  heat_capacity:     285.5503843
  energy:            109.7627679

- temperature:       360.0000000
  free_energy:       -71.2965010
  entropy:           510.8844365
  heat_capacity:     286.2658969
  energy:            112.6218961

- temperature:       370.0000000
  free_energy:       -76.4447722
  entropy:           518.7369730
  heat_capacity:     286.9279785
  energy:            115.4879078

- temperature:       380.0000000
  free_energy:       -81.6705991
  entropy:           526.3970889
  heat_capacity:     287.5417298
  energy:            118.3602946

- temperature:       390.0000000
  free_energy:       -86.9721020
  entropy:           533.8735857
  heat_capacity:     288.1116677
  energy:            121.2385964

- temperature:       400.0000000
  free_energy:       -92.3474863
  entropy:           541.1747042
  heat_capacity:     288.6418023
  energy:            124.1223954

- temperature:       410.0000000
  free_energy:       -97.7950373
  entropy:           548.3081683
  heat_capacity:     289.1357023
  energy:            127.0113117

- temperature:       420.0000000
  free_energy:      -103.3131150
  entropy:           555.2812246
  heat_capacity:     289.5965512
  energy:            129.9049993

- temperature:       430.0000000
  free_energy:      -108.9001498
  entropy:           562.1006789
  heat_capacity:     290.0271954
  energy:            132.8031421

- temperature:       440.0000000
  free_energy:      -114.5546380
  entropy:           568.7729296
  heat_capacity:     290.4301853
  energy:            135.7054510

- temperature:       450.0000000
  free_energy:      -120.2751379
  entropy:           575.3039980
  heat_capacity:     290.8078110
  energy:            138.6116613

- temperature:       460.0000000
  free_energy:      -126.0602663
  entropy:           581.6995563
  heat_capacity:     291.1621335
  energy:            141.5215296

- temperature:       470.0000000
  free_energy:      -131.9086951
  entropy:           587.9649524
  heat_capacity:     291.4950109
  energy:            144.4348325

- temperature:       480.0000000
  free_energy:      -137.8191483
  entropy:           594.1052339
  heat_capacity:     291.8081215
  energy:            147.3513639

- temperature:       490.0000000
  free_energy:      -143.7903987
  entropy:           600.1251689
  heat_capacity:     292.1029847
  energy:            150.2709341

- temperature:       500.0000000
  free_energy:      -149.8212656
  entropy:           606.0292660
  heat_capacity:     292.3809780
  energy:            153.1933674

- temperature:       510.0000000
  free_energy:      -155.9106121
  entropy:           611.8217916
  heat_capacity:     292.6433523
  energy:            156.1185016

- temperature:       520.0000000
  free_energy:      -162.0573430
  entropy:           617.5067870
  heat_capacity:     292.8912461
  energy:            159.0461862

- temperature:       530.0000000
  free_energy:      -168.2604022
  entropy:           623.0880829
  heat_capacity:     293.1256967
  energy:            161.9762817

- temperature:       540.0000000
  free_energy:      -174.5187711
  entropy:           628.5693141
  heat_capacity:     293.3476511
  energy:            164.9086585

- temperature:       550.0000000
  free_energy:      -180.8314665
  entropy:           633.9539318
  heat_capacity:     293.5579749
  energy:            167.8431960

- temperature:       560.0000000
  free_energy:      -187.1975387
  entropy:           639.2452153
  heat_capacity:     293.7574607
  energy:            170.7797819

- temperature:       570.0000000
  free_energy:      -193.6160701
  entropy:           644.4462835
  heat_capacity:     293.9468352
  energy:            173.7183115

- temperature:       580.0000000
  free_energy:      -200.0861735
  entropy:           649.5601046
  heat_capacity:     294.1267655
  energy:            176.6586871

- temperature:       590.0000000
  free_energy:      -206.6069908
  entropy:           654.5895054
  heat_capacity:     294.2978653
  energy:            179.6008174

- temperature:       600.0000000
  free_energy:      -213.1776912
  entropy:           659.5371802
  heat_capacity:     294.4606992
  energy:            182.5446169

- temperature:       610.0000000
  free_energy:      -219.7974706
  entropy:           664.4056985
  heat_capacity:     294.6157880
  energy:            185.4900056

- temperature:       620.0000000
  free_energy:      -226.4655495
  entropy:           669.1975128
  heat_capacity:     294.7636121
  energy:            188.4369084

- temperature:       630.0000000
  free_energy:      -233.1811730
  entropy:           673.9149651
  heat_capacity:     294.9046156
  energy:            191.3852551

- temperature:       640.0000000
  free_energy:      -239.9436084
  entropy:           678.5602934
  heat_capacity:     295.0392094
  energy:            194.3349794

- temperature:       650.0000000
  free_energy:      -246.7521456
  entropy:           683.1356380
  heat_capacity:     295.1677741
  energy:            197.2860192

- temperature:       660.0000000
  free_energy:      -253.6060948
  entropy:           687.6430465
  heat_capacity:     295.2906625
  energy:            200.2383159

- temperature:       670.0000000
  free_energy:      -260.5047866
  entropy:           692.0844793
  heat_capacity:     295.4082021
  energy:            203.1918146

- temperature:       680.0000000
  free_energy:      -267.4475707
  entropy:           696.4618145
  heat_capacity:     295.5206975
  energy:            206.1464632

- temperature:       690.0000000
  free_energy:      -274.4338152
  entropy:           700.7768520
  heat_capacity:     295.6284317
  energy:            209.1022127

- temperature:       700.0000000
  free_energy:      -281.4629058
  entropy:           705.0313181
  heat_capacity:     295.7316684
  energy:            212.0590168

- temperature:       710.0000000
  free_energy:      -288.5342452
  entropy:           709.2268691
  heat_capacity:     295.8306533
  energy:            215.0168319

- temperature:       720.0000000
  free_energy:      -295.6472521
  entropy:           713.3650953
  heat_capacity:     295.9256158
  energy:            217.9756165

- temperature:       730.0000000
  free_energy:      -302.8013611
  entropy:           717.4475241
  heat_capacity:     296.0167699
  energy:            220.9353315

- temperature:       740.0000000
  free_energy:      -309.9960215
  entropy:           721.4756235
  heat_capacity:     296.1043157
  energy:            223.8959398

- temperature:       750.0000000
  free_energy:      -317.2306972
  entropy:           725.4508048
  heat_capacity:     296.1884403
  energy:            226.8574064

- temperature:       760.0000000
  free_energy:      -324.5048658
  entropy:           729.3744258
  heat_capacity:     296.2693191
  energy:            229.8196978

- temperature:       770.0000000
  free_energy:      -331.8180182
  entropy:           733.2477931
  heat_capacity:     296.3471162
  energy:            232.7827825

- temperature:       780.0000000
  free_energy:      -339.1696583
  entropy:           737.0721650
  heat_capacity:     296.4219857
  energy:            235.7466304

- temperature:       790.0000000
  free_energy:      -346.5593022
  entropy:           740.8487534
  heat_capacity:     296.4940720
  energy:            238.7112129

- temperature:       800.0000000
  free_energy:      -353.9864780
  entropy:           744.5787263
  heat_capacity:     296.5635109
  energy:            241.6765030

- temperature:       810.0000000
  free_energy:      -361.4507251
  entropy:           748.2632097
  heat_capacity:     296.6304301
  energy:            244.6424748

- temperature:       820.0000000
  free_energy:      -368.9515942
  entropy:           751.9032900
  heat_capacity:     296.6949495
  energy:            247.6091036

- temperature:       830.0000000
  free_energy:      -376.4886464
  entropy:           755.5000151
  heat_capacity:     296.7571822
  energy:            250.5763661

- temperature:       840.0000000
  free_energy:      -384.0614534
  entropy:           759.0543968
  heat_capacity:     296.8172346
  energy:            253.5442400

- temperature:       850.0000000
  free_energy:      -391.6695965
  entropy:           762.5674122
  heat_capacity:     296.8752070
  energy:            256.5127039

- temperature:       860.0000000
  free_energy:      -399.3126669
  entropy:           766.0400051
  heat_capacity:     296.9311942
  energy:            259.4817375

- temperature:       870.0000000
  free_energy:      -406.9902649
  entropy:           769.4730877
  heat_capacity:     296.9852854
  energy:            262.4513214

- temperature:       880.0000000
  free_energy:      -414.7019999
  entropy:           772.8675421
  heat_capacity:     297.0375651
  energy:            265.4214372

- temperature:       890.0000000
  free_energy:      -422.4474898
  entropy:           776.2242211
  heat_capacity:     297.0881129
  energy:            268.3920670

- temperature:       900.0000000
  free_energy:      -430.2263611
  entropy:           779.5439500
  heat_capacity:     297.1370045
  energy:            271.3631939

- temperature:       910.0000000
  free_energy:      -438.0382483
  entropy:           782.8275276
  heat_capacity:     297.1843111
  energy:            274.3348018

- temperature:       920.0000000
  free_energy:      -445.8827937
  entropy:           786.0757270
  heat_capacity:     297.2301002
  energy:            277.3068751

- temperature:       930.0000000
  free_energy:      -453.7596474
  entropy:           789.2892972
  heat_capacity:     297.2744361
  energy:            280.2793989

- temperature:       940.0000000
  free_energy:      -461.6684667
  entropy:           792.4689637
  heat_capacity:     297.3173793
  energy:            283.2523592

- temperature:       950.0000000
  free_energy:      -469.6089160
  entropy:           795.6154296
  heat_capacity:     297.3589874
  energy:            286.2257421

- temperature:       960.0000000
  free_energy:      -477.5806669
  entropy:           798.7293766
  heat_capacity:     297.3993151
  energy:            289.1995346

- temperature:       970.0000000
  free_energy:      -485.5833974
  entropy:           801.8114656
  heat_capacity:     297.4384143
  energy:            292.1737243

- temperature:       980.0000000
  free_energy:      -493.6167921
  entropy:           804.8623379
  heat_capacity:     297.4763341
  energy:            295.1482990

- temperature:       990.0000000
  free_energy:      -501.6805421
  entropy:           807.8826155
  heat_capacity:     297.5131215
  energy:            298.1232472

- temperature:      1000.0000000
  free_energy:      -509.7743445
  entropy:           810.8729023
  heat_capacity:     297.5488211
  energy:            301.0985578
