phonopy:
  version: "2.37.1"
  frequency_unit_conversion_factor: 15.633302
  symmetry_tolerance: 1.00000e-05

space_group:
  type: "P1"
  number: 1
  Hall_symbol: "P 1"

primitive_matrix:
- [  1.000000000000000,  0.000000000000000, -0.000000000000000 ]
- [  0.000000000000000, -1.000000000000000, -0.000000000000000 ]
- [  0.000000000000000,  0.000000000000000, -1.000000000000000 ]

supercell_matrix:
- [   3,   0,   0 ]
- [   0,   2,   0 ]
- [   0,   0,   2 ]

primitive_cell:
  lattice:
  - [     4.815477133973703,     0.000000000000000,     0.000000000000000 ] # a
  - [    -0.000084340091003,    -5.086682899052862,     0.000000000000000 ] # b
  - [    -0.000385485475586,     0.001788997313533,    -6.075170590686531 ] # c
  points:
  - symbol: Li # 1
    coordinates: [  0.343962477371046,  0.541804770866579,  0.965082919868148 ]
    mass: 6.940000
  - symbol: Li # 2
    coordinates: [  0.343935976318201,  0.541611869762140,  0.465855637164104 ]
    mass: 6.940000
  - symbol: Li # 3
    coordinates: [  0.843975487202274,  0.890841415580199,  0.966018217183823 ]
    mass: 6.940000
  - symbol: Li # 4
    coordinates: [  0.843992397798049,  0.891281503960652,  0.464941317052421 ]
    mass: 6.940000
  - symbol: Ga # 5
    coordinates: [  0.344174349955196,  0.047537988191517,  0.215389759609974 ]
    mass: 69.723000
  - symbol: Ga # 6
    coordinates: [  0.843831640019025,  0.385102248737496,  0.715646349793680 ]
    mass: 69.723000
  - symbol: Sn # 7
    coordinates: [  0.844031828699997,  0.396823798630242,  0.215531596722858 ]
    mass: 118.710000
  - symbol: Sn # 8
    coordinates: [  0.343918135672384,  0.035953012141041,  0.715477763691575 ]
    mass: 118.710000
  reciprocal_lattice: # without 2pi
  - [     0.207663741759855,    -0.000003443182763,    -0.000013177821907 ] # a*
  - [     0.000000000000000,    -0.196591771070731,    -0.000057891732431 ] # b*
  - [     0.000000000000000,    -0.000000000000000,    -0.164604431278529 ] # c*

unit_cell:
  lattice:
  - [     4.815477133973703,     0.000000000000000,     0.000000000000000 ] # a
  - [     0.000084340091003,     5.086682899052862,     0.000000000000000 ] # b
  - [     0.000385485475586,    -0.001788997313533,     6.075170590686529 ] # c
  points:
  - symbol: Li # 1
    coordinates: [  0.343962477371046,  0.458195229133421,  0.034917080131852 ]
    mass: 6.940000
    reduced_to: 1
  - symbol: Li # 2
    coordinates: [  0.343935976318201,  0.458388130237860,  0.534144362835896 ]
    mass: 6.940000
    reduced_to: 2
  - symbol: Li # 3
    coordinates: [  0.843975487202274,  0.109158584419801,  0.033981782816177 ]
    mass: 6.940000
    reduced_to: 3
  - symbol: Li # 4
    coordinates: [  0.843992397798049,  0.108718496039348,  0.535058682947579 ]
    mass: 6.940000
    reduced_to: 4
  - symbol: Ga # 5
    coordinates: [  0.344174349955196,  0.952462011808483,  0.784610240390027 ]
    mass: 69.723000
    reduced_to: 5
  - symbol: Ga # 6
    coordinates: [  0.843831640019025,  0.614897751262504,  0.284353650206320 ]
    mass: 69.723000
    reduced_to: 6
  - symbol: Sn # 7
    coordinates: [  0.844031828699997,  0.603176201369758,  0.784468403277143 ]
    mass: 118.710000
    reduced_to: 7
  - symbol: Sn # 8
    coordinates: [  0.343918135672384,  0.964046987858959,  0.284522236308425 ]
    mass: 118.710000
    reduced_to: 8

supercell:
  lattice:
  - [    14.446431401921108,     0.000000000000000,     0.000000000000000 ] # a
  - [     0.000168680182005,    10.173365798105724,     0.000000000000000 ] # b
  - [     0.000770970951172,    -0.003577994627066,    12.150341181373058 ] # c
  points:
  - symbol: Li # 1
    coordinates: [  0.114654159123682,  0.229097614566710,  0.017458540065926 ]
    mass: 6.940000
    reduced_to: 1
  - symbol: Li # 2
    coordinates: [  0.447987492457015,  0.229097614566710,  0.017458540065926 ]
    mass: 6.940000
    reduced_to: 1
  - symbol: Li # 3
    coordinates: [  0.781320825790349,  0.229097614566710,  0.017458540065926 ]
    mass: 6.940000
    reduced_to: 1
  - symbol: Li # 4
    coordinates: [  0.114654159123682,  0.729097614566710,  0.017458540065926 ]
    mass: 6.940000
    reduced_to: 1
  - symbol: Li # 5
    coordinates: [  0.447987492457015,  0.729097614566710,  0.017458540065926 ]
    mass: 6.940000
    reduced_to: 1
  - symbol: Li # 6
    coordinates: [  0.781320825790349,  0.729097614566710,  0.017458540065926 ]
    mass: 6.940000
    reduced_to: 1
  - symbol: Li # 7
    coordinates: [  0.114654159123682,  0.229097614566710,  0.517458540065926 ]
    mass: 6.940000
    reduced_to: 1
  - symbol: Li # 8
    coordinates: [  0.447987492457015,  0.229097614566710,  0.517458540065926 ]
    mass: 6.940000
    reduced_to: 1
  - symbol: Li # 9
    coordinates: [  0.781320825790349,  0.229097614566710,  0.517458540065926 ]
    mass: 6.940000
    reduced_to: 1
  - symbol: Li # 10
    coordinates: [  0.114654159123682,  0.729097614566710,  0.517458540065926 ]
    mass: 6.940000
    reduced_to: 1
  - symbol: Li # 11
    coordinates: [  0.447987492457015,  0.729097614566710,  0.517458540065926 ]
    mass: 6.940000
    reduced_to: 1
  - symbol: Li # 12
    coordinates: [  0.781320825790349,  0.729097614566710,  0.517458540065926 ]
    mass: 6.940000
    reduced_to: 1
  - symbol: Li # 13
    coordinates: [  0.114645325439400,  0.229194065118930,  0.267072181417948 ]
    mass: 6.940000
    reduced_to: 13
  - symbol: Li # 14
    coordinates: [  0.447978658772734,  0.229194065118930,  0.267072181417948 ]
    mass: 6.940000
    reduced_to: 13
  - symbol: Li # 15
    coordinates: [  0.781311992106067,  0.229194065118930,  0.267072181417948 ]
    mass: 6.940000
    reduced_to: 13
  - symbol: Li # 16
    coordinates: [  0.114645325439400,  0.729194065118930,  0.267072181417948 ]
    mass: 6.940000
    reduced_to: 13
  - symbol: Li # 17
    coordinates: [  0.447978658772734,  0.729194065118930,  0.267072181417948 ]
    mass: 6.940000
    reduced_to: 13
  - symbol: Li # 18
    coordinates: [  0.781311992106067,  0.729194065118930,  0.267072181417948 ]
    mass: 6.940000
    reduced_to: 13
  - symbol: Li # 19
    coordinates: [  0.114645325439400,  0.229194065118930,  0.767072181417948 ]
    mass: 6.940000
    reduced_to: 13
  - symbol: Li # 20
    coordinates: [  0.447978658772734,  0.229194065118930,  0.767072181417948 ]
    mass: 6.940000
    reduced_to: 13
  - symbol: Li # 21
    coordinates: [  0.781311992106067,  0.229194065118930,  0.767072181417948 ]
    mass: 6.940000
    reduced_to: 13
  - symbol: Li # 22
    coordinates: [  0.114645325439400,  0.729194065118930,  0.767072181417948 ]
    mass: 6.940000
    reduced_to: 13
  - symbol: Li # 23
    coordinates: [  0.447978658772734,  0.729194065118930,  0.767072181417948 ]
    mass: 6.940000
    reduced_to: 13
  - symbol: Li # 24
    coordinates: [  0.781311992106067,  0.729194065118930,  0.767072181417948 ]
    mass: 6.940000
    reduced_to: 13
  - symbol: Li # 25
    coordinates: [  0.281325162400758,  0.054579292209900,  0.016990891408088 ]
    mass: 6.940000
    reduced_to: 25
  - symbol: Li # 26
    coordinates: [  0.614658495734091,  0.054579292209900,  0.016990891408088 ]
    mass: 6.940000
    reduced_to: 25
  - symbol: Li # 27
    coordinates: [  0.947991829067425,  0.054579292209900,  0.016990891408088 ]
    mass: 6.940000
    reduced_to: 25
  - symbol: Li # 28
    coordinates: [  0.281325162400758,  0.554579292209900,  0.016990891408088 ]
    mass: 6.940000
    reduced_to: 25
  - symbol: Li # 29
    coordinates: [  0.614658495734091,  0.554579292209900,  0.016990891408088 ]
    mass: 6.940000
    reduced_to: 25
  - symbol: Li # 30
    coordinates: [  0.947991829067425,  0.554579292209900,  0.016990891408088 ]
    mass: 6.940000
    reduced_to: 25
  - symbol: Li # 31
    coordinates: [  0.281325162400758,  0.054579292209900,  0.516990891408088 ]
    mass: 6.940000
    reduced_to: 25
  - symbol: Li # 32
    coordinates: [  0.614658495734091,  0.054579292209900,  0.516990891408088 ]
    mass: 6.940000
    reduced_to: 25
  - symbol: Li # 33
    coordinates: [  0.947991829067425,  0.054579292209900,  0.516990891408088 ]
    mass: 6.940000
    reduced_to: 25
  - symbol: Li # 34
    coordinates: [  0.281325162400758,  0.554579292209900,  0.516990891408088 ]
    mass: 6.940000
    reduced_to: 25
  - symbol: Li # 35
    coordinates: [  0.614658495734091,  0.554579292209900,  0.516990891408088 ]
    mass: 6.940000
    reduced_to: 25
  - symbol: Li # 36
    coordinates: [  0.947991829067425,  0.554579292209900,  0.516990891408088 ]
    mass: 6.940000
    reduced_to: 25
  - symbol: Li # 37
    coordinates: [  0.281330799266016,  0.054359248019674,  0.267529341473790 ]
    mass: 6.940000
    reduced_to: 37
  - symbol: Li # 38
    coordinates: [  0.614664132599350,  0.054359248019674,  0.267529341473790 ]
    mass: 6.940000
    reduced_to: 37
  - symbol: Li # 39
    coordinates: [  0.947997465932683,  0.054359248019674,  0.267529341473790 ]
    mass: 6.940000
    reduced_to: 37
  - symbol: Li # 40
    coordinates: [  0.281330799266016,  0.554359248019674,  0.267529341473790 ]
    mass: 6.940000
    reduced_to: 37
  - symbol: Li # 41
    coordinates: [  0.614664132599350,  0.554359248019674,  0.267529341473790 ]
    mass: 6.940000
    reduced_to: 37
  - symbol: Li # 42
    coordinates: [  0.947997465932683,  0.554359248019674,  0.267529341473790 ]
    mass: 6.940000
    reduced_to: 37
  - symbol: Li # 43
    coordinates: [  0.281330799266016,  0.054359248019674,  0.767529341473790 ]
    mass: 6.940000
    reduced_to: 37
  - symbol: Li # 44
    coordinates: [  0.614664132599350,  0.054359248019674,  0.767529341473790 ]
    mass: 6.940000
    reduced_to: 37
  - symbol: Li # 45
    coordinates: [  0.947997465932683,  0.054359248019674,  0.767529341473790 ]
    mass: 6.940000
    reduced_to: 37
  - symbol: Li # 46
    coordinates: [  0.281330799266016,  0.554359248019674,  0.767529341473790 ]
    mass: 6.940000
    reduced_to: 37
  - symbol: Li # 47
    coordinates: [  0.614664132599350,  0.554359248019674,  0.767529341473790 ]
    mass: 6.940000
    reduced_to: 37
  - symbol: Li # 48
    coordinates: [  0.947997465932683,  0.554359248019674,  0.767529341473790 ]
    mass: 6.940000
    reduced_to: 37
  - symbol: Ga # 49
    coordinates: [  0.114724783318399,  0.476231005904241,  0.392305120195013 ]
    mass: 69.723000
    reduced_to: 49
  - symbol: Ga # 50
    coordinates: [  0.448058116651732,  0.476231005904241,  0.392305120195013 ]
    mass: 69.723000
    reduced_to: 49
  - symbol: Ga # 51
    coordinates: [  0.781391449985065,  0.476231005904241,  0.392305120195013 ]
    mass: 69.723000
    reduced_to: 49
  - symbol: Ga # 52
    coordinates: [  0.114724783318399,  0.976231005904241,  0.392305120195013 ]
    mass: 69.723000
    reduced_to: 49
  - symbol: Ga # 53
    coordinates: [  0.448058116651732,  0.976231005904241,  0.392305120195013 ]
    mass: 69.723000
    reduced_to: 49
  - symbol: Ga # 54
    coordinates: [  0.781391449985065,  0.976231005904241,  0.392305120195013 ]
    mass: 69.723000
    reduced_to: 49
  - symbol: Ga # 55
    coordinates: [  0.114724783318399,  0.476231005904241,  0.892305120195013 ]
    mass: 69.723000
    reduced_to: 49
  - symbol: Ga # 56
    coordinates: [  0.448058116651732,  0.476231005904241,  0.892305120195013 ]
    mass: 69.723000
    reduced_to: 49
  - symbol: Ga # 57
    coordinates: [  0.781391449985065,  0.476231005904241,  0.892305120195013 ]
    mass: 69.723000
    reduced_to: 49
  - symbol: Ga # 58
    coordinates: [  0.114724783318399,  0.976231005904241,  0.892305120195013 ]
    mass: 69.723000
    reduced_to: 49
  - symbol: Ga # 59
    coordinates: [  0.448058116651732,  0.976231005904241,  0.892305120195013 ]
    mass: 69.723000
    reduced_to: 49
  - symbol: Ga # 60
    coordinates: [  0.781391449985065,  0.976231005904241,  0.892305120195013 ]
    mass: 69.723000
    reduced_to: 49
  - symbol: Ga # 61
    coordinates: [  0.281277213339675,  0.307448875631252,  0.142176825103160 ]
    mass: 69.723000
    reduced_to: 61
  - symbol: Ga # 62
    coordinates: [  0.614610546673008,  0.307448875631252,  0.142176825103160 ]
    mass: 69.723000
    reduced_to: 61
  - symbol: Ga # 63
    coordinates: [  0.947943880006342,  0.307448875631252,  0.142176825103160 ]
    mass: 69.723000
    reduced_to: 61
  - symbol: Ga # 64
    coordinates: [  0.281277213339675,  0.807448875631252,  0.142176825103160 ]
    mass: 69.723000
    reduced_to: 61
  - symbol: Ga # 65
    coordinates: [  0.614610546673008,  0.807448875631252,  0.142176825103160 ]
    mass: 69.723000
    reduced_to: 61
  - symbol: Ga # 66
    coordinates: [  0.947943880006342,  0.807448875631252,  0.142176825103160 ]
    mass: 69.723000
    reduced_to: 61
  - symbol: Ga # 67
    coordinates: [  0.281277213339675,  0.307448875631252,  0.642176825103160 ]
    mass: 69.723000
    reduced_to: 61
  - symbol: Ga # 68
    coordinates: [  0.614610546673008,  0.307448875631252,  0.642176825103160 ]
    mass: 69.723000
    reduced_to: 61
  - symbol: Ga # 69
    coordinates: [  0.947943880006342,  0.307448875631252,  0.642176825103160 ]
    mass: 69.723000
    reduced_to: 61
  - symbol: Ga # 70
    coordinates: [  0.281277213339675,  0.807448875631252,  0.642176825103160 ]
    mass: 69.723000
    reduced_to: 61
  - symbol: Ga # 71
    coordinates: [  0.614610546673008,  0.807448875631252,  0.642176825103160 ]
    mass: 69.723000
    reduced_to: 61
  - symbol: Ga # 72
    coordinates: [  0.947943880006342,  0.807448875631252,  0.642176825103160 ]
    mass: 69.723000
    reduced_to: 61
  - symbol: Sn # 73
    coordinates: [  0.281343942899999,  0.301588100684879,  0.392234201638571 ]
    mass: 118.710000
    reduced_to: 73
  - symbol: Sn # 74
    coordinates: [  0.614677276233332,  0.301588100684879,  0.392234201638571 ]
    mass: 118.710000
    reduced_to: 73
  - symbol: Sn # 75
    coordinates: [  0.948010609566666,  0.301588100684879,  0.392234201638571 ]
    mass: 118.710000
    reduced_to: 73
  - symbol: Sn # 76
    coordinates: [  0.281343942899999,  0.801588100684879,  0.392234201638571 ]
    mass: 118.710000
    reduced_to: 73
  - symbol: Sn # 77
    coordinates: [  0.614677276233332,  0.801588100684879,  0.392234201638571 ]
    mass: 118.710000
    reduced_to: 73
  - symbol: Sn # 78
    coordinates: [  0.948010609566666,  0.801588100684879,  0.392234201638571 ]
    mass: 118.710000
    reduced_to: 73
  - symbol: Sn # 79
    coordinates: [  0.281343942899999,  0.301588100684879,  0.892234201638571 ]
    mass: 118.710000
    reduced_to: 73
  - symbol: Sn # 80
    coordinates: [  0.614677276233332,  0.301588100684879,  0.892234201638571 ]
    mass: 118.710000
    reduced_to: 73
  - symbol: Sn # 81
    coordinates: [  0.948010609566666,  0.301588100684879,  0.892234201638571 ]
    mass: 118.710000
    reduced_to: 73
  - symbol: Sn # 82
    coordinates: [  0.281343942899999,  0.801588100684879,  0.892234201638571 ]
    mass: 118.710000
    reduced_to: 73
  - symbol: Sn # 83
    coordinates: [  0.614677276233332,  0.801588100684879,  0.892234201638571 ]
    mass: 118.710000
    reduced_to: 73
  - symbol: Sn # 84
    coordinates: [  0.948010609566666,  0.801588100684879,  0.892234201638571 ]
    mass: 118.710000
    reduced_to: 73
  - symbol: Sn # 85
    coordinates: [  0.114639378557461,  0.482023493929479,  0.142261118154212 ]
    mass: 118.710000
    reduced_to: 85
  - symbol: Sn # 86
    coordinates: [  0.447972711890795,  0.482023493929479,  0.142261118154212 ]
    mass: 118.710000
    reduced_to: 85
  - symbol: Sn # 87
    coordinates: [  0.781306045224128,  0.482023493929479,  0.142261118154212 ]
    mass: 118.710000
    reduced_to: 85
  - symbol: Sn # 88
    coordinates: [  0.114639378557461,  0.982023493929479,  0.142261118154212 ]
    mass: 118.710000
    reduced_to: 85
  - symbol: Sn # 89
    coordinates: [  0.447972711890795,  0.982023493929479,  0.142261118154212 ]
    mass: 118.710000
    reduced_to: 85
  - symbol: Sn # 90
    coordinates: [  0.781306045224128,  0.982023493929479,  0.142261118154212 ]
    mass: 118.710000
    reduced_to: 85
  - symbol: Sn # 91
    coordinates: [  0.114639378557461,  0.482023493929479,  0.642261118154212 ]
    mass: 118.710000
    reduced_to: 85
  - symbol: Sn # 92
    coordinates: [  0.447972711890795,  0.482023493929479,  0.642261118154212 ]
    mass: 118.710000
    reduced_to: 85
  - symbol: Sn # 93
    coordinates: [  0.781306045224128,  0.482023493929479,  0.642261118154212 ]
    mass: 118.710000
    reduced_to: 85
  - symbol: Sn # 94
    coordinates: [  0.114639378557461,  0.982023493929479,  0.642261118154212 ]
    mass: 118.710000
    reduced_to: 85
  - symbol: Sn # 95
    coordinates: [  0.447972711890795,  0.982023493929479,  0.642261118154212 ]
    mass: 118.710000
    reduced_to: 85
  - symbol: Sn # 96
    coordinates: [  0.781306045224128,  0.982023493929479,  0.642261118154212 ]
    mass: 118.710000
    reduced_to: 85

displacements:
- atom:    1
  displacement:
    [   0.0100000000000000,  0.0000000000000000,  0.0000000000000000 ]
  forces:
  - [  -0.0187660381197929, -0.0776956304907799,  0.0245122574269772 ]
  - [  -0.0002108835615218, -0.0775829702615738,  0.0244498811662197 ]
  - [  -0.0001946993434103, -0.0777151137590408,  0.0244613476097584 ]
  - [  -0.0001134003687184, -0.0776484757661819,  0.0244550071656704 ]
  - [  -0.0000766569864936, -0.0776286721229553,  0.0244554504752159 ]
  - [  -0.0000759340910008, -0.0776663944125175,  0.0244534425437450 ]
  - [  -0.0001087046257453, -0.0776476562023163,  0.0244551636278629 ]
  - [  -0.0000618172198301, -0.0776480287313461,  0.0244544632732868 ]
  - [  -0.0000620237260591, -0.0776482522487640,  0.0244561694562435 ]
  - [  -0.0000678878932376, -0.0776489749550819,  0.0244547054171562 ]
  - [  -0.0000703057303326, -0.0776526927947998,  0.0244543328881264 ]
  - [  -0.0000710042440915, -0.0776446908712387,  0.0244568660855293 ]
  - [   0.0007094523170963, -0.0789186879992485, -0.0256975963711739 ]
  - [  -0.0000419233110733, -0.0788295194506645, -0.0258812848478556 ]
  - [  -0.0000423599267378, -0.0790081173181534, -0.0254967305809259 ]
  - [   0.0003397929540370, -0.0789193212985992, -0.0256885420531034 ]
  - [   0.0002953909861390, -0.0789042711257935, -0.0256775040179491 ]
  - [   0.0002940653939731, -0.0789340138435364, -0.0257009528577328 ]
  - [   0.0005503048887476, -0.0789186283946037, -0.0256824269890785 ]
  - [  -0.0000358640390914, -0.0787550359964371, -0.0255107451230288 ]
  - [  -0.0000368071778212, -0.0790807604789734, -0.0258688628673553 ]
  - [   0.0003997359308414, -0.0789199620485306, -0.0256902985274792 ]
  - [   0.0002869985764846, -0.0789185613393784, -0.0257004033774137 ]
  - [   0.0002873417979572, -0.0789201632142067, -0.0256773065775633 ]
  - [   0.0023620594292879,  0.0753023326396942, -0.0228248368948698 ]
  - [   0.0002553146332502,  0.0769155174493790, -0.0229624472558498 ]
  - [   0.0023145293816924,  0.0784983485937119, -0.0231039933860302 ]
  - [   0.0002683848142624,  0.0770123079419136, -0.0228708758950233 ]
  - [   0.0004677362740040,  0.0769159346818924, -0.0229621734470129 ]
  - [   0.0002703703939915,  0.0768195688724518, -0.0230545401573181 ]
  - [   0.0002756956964731,  0.0769138932228088, -0.0229588653892279 ]
  - [   0.0002551060169935,  0.0769156888127327, -0.0229632444679737 ]
  - [   0.0002750070998445,  0.0769182220101357, -0.0229669548571110 ]
  - [   0.0002801865339279,  0.0769286006689072, -0.0229588374495506 ]
  - [   0.0002488438040018,  0.0769154578447342, -0.0229620151221752 ]
  - [   0.0002804218092933,  0.0769027546048164, -0.0229645781219006 ]
  - [  -0.0000585136003792,  0.0801836103200912,  0.0233121551573277 ]
  - [  -0.0000046323984861,  0.0800170972943306,  0.0234893281012774 ]
  - [  -0.0000553890131414,  0.0798574984073639,  0.0236584879457951 ]
  - [   0.0001294217072427,  0.0798401981592178,  0.0234511829912663 ]
  - [   0.0000504399649799,  0.0800176858901978,  0.0234888345003128 ]
  - [   0.0001278361305594,  0.0801954120397568,  0.0235272943973541 ]
  - [  -0.0000605040695518,  0.0802213847637177,  0.0236271675676107 ]
  - [  -0.0000045952619985,  0.0800171718001366,  0.0234881862998009 ]
  - [  -0.0000566794769838,  0.0798172056674957,  0.0233578160405159 ]
  - [   0.0001306380145252,  0.0797941982746124,  0.0235318057239056 ]
  - [   0.0000502291368321,  0.0800171494483948,  0.0234877448529005 ]
  - [   0.0001278512645513,  0.0802364721894264,  0.0234433449804783 ]
  - [  -0.0015978366136551,  0.0642547085881233, -0.0007752666715533 ]
  - [  -0.0016172144096345,  0.0642489194869995, -0.0007352370303124 ]
  - [  -0.0016196535434574,  0.0642589181661606, -0.0008147013140842 ]
  - [  -0.0016304235905409,  0.0642536953091621, -0.0007767104543746 ]
  - [  -0.0015899540157989,  0.0642396211624146, -0.0007945485413074 ]
  - [  -0.0015909729991108,  0.0642685294151306, -0.0007573983166367 ]
  - [  -0.0026706277858466,  0.0642430037260056, -0.0007689628982916 ]
  - [  -0.0017682032193989,  0.0641096979379654, -0.0006723505211994 ]
  - [  -0.0017669149674475,  0.0643932372331619, -0.0008799192146398 ]
  - [  -0.0011907580774277,  0.0642614141106606, -0.0007676305249333 ]
  - [  -0.0017223956529051,  0.0642517805099487, -0.0006773482309654 ]
  - [  -0.0017227511852980,  0.0642528757452965, -0.0008733875583857 ]
  - [   0.0037308535538614, -0.0648583322763443,  0.0039810733869672 ]
  - [   0.0010626681614667, -0.0652118399739265,  0.0014831842854619 ]
  - [   0.0036462740972638, -0.0655356794595718, -0.0009522816981189 ]
  - [   0.0010062761139125, -0.0652743354439735,  0.0014553028158844 ]
  - [   0.0009417471592315, -0.0652117878198624,  0.0014833677560091 ]
  - [   0.0010095234028995, -0.0651485621929169,  0.0015097702853382 ]
  - [   0.0008792737498879, -0.0651490092277527,  0.0012558572925627 ]
  - [   0.0010190998436883, -0.0652109980583191,  0.0014830797445029 ]
  - [   0.0008811207953840, -0.0652722492814064,  0.0017156391404569 ]
  - [   0.0009694717591628, -0.0652387142181396,  0.0015302859246731 ]
  - [   0.0009674591710791, -0.0652126669883728,  0.0014830611180514 ]
  - [   0.0009672062005848, -0.0651855394244194,  0.0014352260623127 ]
  - [  -0.0001312512904406,  0.0046075023710728,  0.0005259513854980 ]
  - [  -0.0001441878266633,  0.0045274943113327,  0.0002222675830126 ]
  - [  -0.0001295888796449,  0.0044455118477345, -0.0000849035568535 ]
  - [  -0.0001571718603373,  0.0045131556689739,  0.0002179695293307 ]
  - [  -0.0001376448199153,  0.0045289136469364,  0.0002218363806605 ]
  - [  -0.0001552207395434,  0.0045449361205101,  0.0002252068370581 ]
  - [   0.0056040803901851,  0.0054224319756031, -0.0043441150337458 ]
  - [  -0.0002583670429885,  0.0045299381017685,  0.0002205439377576 ]
  - [   0.0054698484018445,  0.0036830641329288,  0.0046760756522417 ]
  - [  -0.0001134574413300,  0.0044556558132172,  0.0001908504636958 ]
  - [  -0.0001608072780073,  0.0045292377471924,  0.0002219589659944 ]
  - [  -0.0001151831820607,  0.0046020038425922,  0.0002545907627791 ]
  - [  -0.0008435994386673, -0.0039519034326077, -0.0002322320360690 ]
  - [   0.0001430492848158, -0.0039699189364910, -0.0003681909292936 ]
  - [   0.0001414511352777, -0.0039037652313709, -0.0000733770430088 ]
  - [   0.0007341238670051, -0.0039210207760334, -0.0002331708092242 ]
  - [   0.0003489721566439, -0.0040245540440083, -0.0002646204084158 ]
  - [   0.0003472268581390, -0.0038502328097820, -0.0001767519861460 ]
  - [   0.0004903099033982, -0.0039358735084534, -0.0002202219329774 ]
  - [   0.0002320539206266, -0.0039632432162762, -0.0001469999551773 ]
  - [   0.0002320576459169, -0.0039080753922462, -0.0002957265824080 ]
  - [   0.0002746229874901, -0.0039350092411041, -0.0002199888695031 ]
  - [   0.0003380980342627, -0.0039435885846615, -0.0002178382128477 ]
  - [   0.0003407895565033, -0.0039285123348236, -0.0002256147563457 ]
- atom:    1
  displacement:
    [  -0.0100000000000000,  0.0000000000000000,  0.0000000000000000 ]
  forces:
  - [   0.0186265371739864, -0.0776892453432083,  0.0245329551398754 ]
  - [   0.0000553721911274, -0.0777151733636856,  0.0244618896394968 ]
  - [   0.0000714492052794, -0.0775825679302216,  0.0244505740702152 ]
  - [  -0.0000253770558629, -0.0776482969522476,  0.0244551338255405 ]
  - [  -0.0000634273892501, -0.0776655077934265,  0.0244542025029659 ]
  - [  -0.0000627694244031, -0.0776293799281120,  0.0244550388306379 ]
  - [  -0.0000303892447846, -0.0776474773883820,  0.0244551822543144 ]
  - [  -0.0000774684303906, -0.0776485949754715,  0.0244560930877924 ]
  - [  -0.0000775912631070, -0.0776479765772820,  0.0244546756148338 ]
  - [  -0.0000710519452696, -0.0776490122079849,  0.0244547985494137 ]
  - [  -0.0000687334468239, -0.0776436179876328,  0.0244567561894655 ]
  - [  -0.0000694472837495, -0.0776536017656326,  0.0244542993605137 ]
  - [  -0.0001227177272085, -0.0789188668131828, -0.0256958026438951 ]
  - [   0.0006283500115387, -0.0790084600448608, -0.0254965238273144 ]
  - [   0.0006282009417191, -0.0788290798664093, -0.0258816499263048 ]
  - [   0.0002467783051543, -0.0789188072085381, -0.0256888959556818 ]
  - [   0.0002909892064054, -0.0789332538843155, -0.0257009472697973 ]
  - [   0.0002897469385061, -0.0789047777652740, -0.0256774760782719 ]
  - [   0.0000353051364073, -0.0789188221096992, -0.0256823245435953 ]
  - [   0.0006223561940715, -0.0790807157754898, -0.0258686989545822 ]
  - [   0.0006216811016202, -0.0787550285458565, -0.0255113169550896 ]
  - [   0.0001868530525826, -0.0789197981357574, -0.0256902538239956 ]
  - [   0.0002984756138176, -0.0789202153682709, -0.0256779417395592 ]
  - [   0.0002986514300574, -0.0789182260632515, -0.0257000979036093 ]
  - [  -0.0017753597348928,  0.0784981772303581, -0.0231040455400944 ]
  - [   0.0002808813005686,  0.0769155099987984, -0.0229624304920435 ]
  - [  -0.0018238611519337,  0.0753014981746674, -0.0228267554193735 ]
  - [   0.0002679098397493,  0.0768186226487160, -0.0230547487735748 ]
  - [   0.0000716242939234,  0.0769160240888596, -0.0229623354971409 ]
  - [   0.0002695947187021,  0.0770114734768867, -0.0228706430643797 ]
  - [   0.0002627521753311,  0.0769182220101357, -0.0229677967727184 ]
  - [   0.0002809353172779,  0.0769157260656357, -0.0229632649570704 ]
  - [   0.0002622110769153,  0.0769139006733894, -0.0229580756276846 ]
  - [   0.0002584867179394,  0.0769025087356567, -0.0229647941887379 ]
  - [   0.0002921000123024,  0.0769155174493790, -0.0229620244354010 ]
  - [   0.0002587899798527,  0.0769288390874863, -0.0229586493223906 ]
  - [   0.0000085327774286,  0.0798569172620773,  0.0236582960933447 ]
  - [  -0.0000423872843385,  0.0800170898437500,  0.0234893374145031 ]
  - [   0.0000122077763081,  0.0801844820380211,  0.0233121216297150 ]
  - [  -0.0001741521991789,  0.0801957398653030,  0.0235280953347683 ]
  - [  -0.0000952952541411,  0.0800176262855530,  0.0234888810664415 ]
  - [  -0.0001763802720234,  0.0798403173685074,  0.0234507080167532 ]
  - [   0.0000098473392427,  0.0798181146383286,  0.0233578979969025 ]
  - [  -0.0000428769271821,  0.0800172314047813,  0.0234881155192852 ]
  - [   0.0000135631999001,  0.0802209451794624,  0.0236272849142551 ]
  - [  -0.0001732176169753,  0.0802360996603966,  0.0234432369470596 ]
  - [  -0.0000948408851400,  0.0800172537565231,  0.0234876684844494 ]
  - [  -0.0001768681686372,  0.0797943696379662,  0.0235318373888731 ]
  - [  -0.0016151370946318,  0.0642541870474815, -0.0007752561941743 ]
  - [  -0.0015962850302458,  0.0642590671777725, -0.0008144591702148 ]
  - [  -0.0015980694442987,  0.0642486214637756, -0.0007355399429798 ]
  - [  -0.0015823146095499,  0.0642536133527756, -0.0007753106765449 ]
  - [  -0.0016229590401053,  0.0642680823802948, -0.0007562459213659 ]
  - [  -0.0016243888530880,  0.0642399564385414, -0.0007957100169733 ]
  - [  -0.0005439380183816,  0.0642392188310623, -0.0007654505316168 ]
  - [  -0.0014490602770820,  0.0643925666809082, -0.0008807248668745 ]
  - [  -0.0014463836560026,  0.0641087964177132, -0.0006725790444762 ]
  - [  -0.0020243097096682,  0.0642612129449844, -0.0007695003878325 ]
  - [  -0.0014918821398169,  0.0642524361610413, -0.0008721028571017 ]
  - [  -0.0014913789927959,  0.0642523318529129, -0.0006780595285818 ]
  - [  -0.0017181397415698, -0.0655391290783882, -0.0009587982203811 ]
  - [   0.0008745627710596, -0.0652118921279907,  0.0014829646097496 ]
  - [  -0.0017868429422379, -0.0648612976074219,  0.0039746291004121 ]
  - [   0.0009277710341848, -0.0651495680212975,  0.0015106061473489 ]
  - [   0.0009931712411344, -0.0652118176221848,  0.0014834466855973 ]
  - [   0.0009300294914283, -0.0652741417288780,  0.0014547759201378 ]
  - [   0.0010557814966887, -0.0652718991041183,  0.0017141860444099 ]
  - [   0.0009195387829095, -0.0652109533548355,  0.0014831700827926 ]
  - [   0.0010581326205283, -0.0651495307683945,  0.0012550632236525 ]
  - [   0.0009687074343674, -0.0651861950755119,  0.0014354404993355 ]
  - [   0.0009685228578746, -0.0652126669883728,  0.0014831835869700 ]
  - [   0.0009667116100900, -0.0652381926774979,  0.0015303059481084 ]
  - [  -0.0001711784861982,  0.0044461935758591, -0.0000850250944495 ]
  - [  -0.0001539266668260,  0.0045274049043655,  0.0002223607152700 ]
  - [  -0.0001696469262242,  0.0046077631413937,  0.0005268526729196 ]
  - [  -0.0001442162320018,  0.0045452341437340,  0.0002255113795400 ]
  - [  -0.0001637949608266,  0.0045289285480976,  0.0002216072753072 ]
  - [  -0.0001417878083885,  0.0045128278434277,  0.0002178060822189 ]
  - [  -0.0057623079046607,  0.0036861039698124,  0.0046728458255529 ]
  - [  -0.0000389749184251,  0.0045296214520931,  0.0002204797929153 ]
  - [  -0.0059099690988660,  0.0054254978895187, -0.0043486868962646 ]
  - [  -0.0001855245791376,  0.0046022236347198,  0.0002536760875955 ]
  - [  -0.0001400075852871,  0.0045291520655155,  0.0002220706082880 ]
  - [  -0.0001866891980171,  0.0044557340443134,  0.0001920561771840 ]
  - [   0.0014818538911641, -0.0039512962102890, -0.0002331058494747 ]