phonopy:
  version: "2.37.1"
  frequency_unit_conversion_factor: 15.633302
  symmetry_tolerance: 1.00000e-05

space_group:
  type: "P1"
  number: 1
  Hall_symbol: "P 1"

primitive_matrix:
- [  1.000000000000000,  1.000000000000000,  0.000000000000000 ]
- [  1.000000000000000,  0.000000000000000, -0.000000000000000 ]
- [  0.000000000000000,  0.000000000000000, -1.000000000000000 ]

supercell_matrix:
- [   3,   0,   0 ]
- [   0,   3,   0 ]
- [   0,   0,   1 ]

primitive_cell:
  lattice:
  - [     2.479637519352139,     4.318577476359932,     0.000000000000000 ] # a
  - [     4.987236646511577,     0.000000000000000,     0.000000000000000 ] # b
  - [     0.015239299549692,    -0.000971381652907,   -12.115217716261812 ] # c
  points:
  - symbol: Li # 1
    coordinates: [  0.165692706699753,  0.643630497804947,  0.793221953315472 ]
    mass: 6.940000
  - symbol: Li # 2
    coordinates: [  0.499179009706353,  0.980887489401413,  0.431804221950785 ]
    mass: 6.940000
  - symbol: Li # 3
    coordinates: [  0.832389007987289,  0.312288815665089,  0.232403999655472 ]
    mass: 6.940000
  - symbol: Sn # 4
    coordinates: [  0.832541566496437,  0.312604972168969,  0.637858852485530 ]
    mass: 118.710000
  - symbol: Sn # 5
    coordinates: [  0.165776860009142,  0.647315471915546,  0.550764571326978 ]
    mass: 118.710000
  - symbol: Sn # 6
    coordinates: [  0.165650150381767,  0.644979844414046,  0.041033871529271 ]
    mass: 118.710000
  - symbol: Sn # 7
    coordinates: [  0.165757148045068,  0.645957834029070,  0.306034762081479 ]
    mass: 118.710000
  - symbol: Sn # 8
    coordinates: [  0.832269719429578,  0.310938117757974,  0.915493479877232 ]
    mass: 118.710000
  - symbol: Sn # 9
    coordinates: [  0.498946389449031,  0.977937929543745,  0.786444541092438 ]
    mass: 118.710000
  - symbol: Sn # 10
    coordinates: [  0.499048975392334,  0.978670190791966,  0.167140490309387 ]
    mass: 118.710000
  reciprocal_lattice: # without 2pi
  - [     0.000000000000000,     0.231557730635618,    -0.000018565983410 ] # a*
  - [     0.200511840700294,    -0.115129735658671,     0.000261447626514 ] # b*
  - [     0.000000000000000,     0.000000000000000,    -0.082540819605556 ] # c*

unit_cell:
  lattice:
  - [     4.987236646511579,     0.000000000000000,     0.000000000000000 ] # a
  - [    -2.507599127159438,     4.318577476359933,     0.000000000000000 ] # b
  - [    -0.015239299549692,     0.000971381652907,    12.115217716261816 ] # c
  points:
  - symbol: Li # 1
    coordinates: [  0.809323204504700,  0.165692706699753,  0.206778046684528 ]
    mass: 6.940000
    reduced_to: 1
  - symbol: Li # 2
    coordinates: [  0.480066499107766,  0.499179009706353,  0.568195778049215 ]
    mass: 6.940000
    reduced_to: 2
  - symbol: Li # 3
    coordinates: [  0.144677823652378,  0.832389007987289,  0.767596000344528 ]
    mass: 6.940000
    reduced_to: 3
  - symbol: Sn # 4
    coordinates: [  0.145146538665406,  0.832541566496437,  0.362141147514470 ]
    mass: 118.710000
    reduced_to: 4
  - symbol: Sn # 5
    coordinates: [  0.813092331924688,  0.165776860009142,  0.449235428673022 ]
    mass: 118.710000
    reduced_to: 5
  - symbol: Sn # 6
    coordinates: [  0.810629994795813,  0.165650150381767,  0.958966128470729 ]
    mass: 118.710000
    reduced_to: 6
  - symbol: Sn # 7
    coordinates: [  0.811714982074138,  0.165757148045068,  0.693965237918521 ]
    mass: 118.710000
    reduced_to: 7
  - symbol: Sn # 8
    coordinates: [  0.143207837187551,  0.832269719429578,  0.084506520122768 ]
    mass: 118.710000
    reduced_to: 8
  - symbol: Sn # 9
    coordinates: [  0.476884318992775,  0.498946389449031,  0.213555458907562 ]
    mass: 118.710000
    reduced_to: 9
  - symbol: Sn # 10
    coordinates: [  0.477719166184300,  0.499048975392334,  0.832859509690613 ]
    mass: 118.710000
    reduced_to: 10

supercell:
  lattice:
  - [    14.961709939534735,     0.000000000000000,     0.000000000000000 ] # a
  - [    -7.522797381478314,    12.955732429079799,     0.000000000000000 ] # b
  - [    -0.015239299549692,     0.000971381652907,    12.115217716261816 ] # c
  points:
  - symbol: Li # 1
    coordinates: [  0.269774401501567,  0.055230902233251,  0.206778046684528 ]
    mass: 6.940000
    reduced_to: 1
  - symbol: Li # 2
    coordinates: [  0.603107734834900,  0.055230902233251,  0.206778046684528 ]
    mass: 6.940000
    reduced_to: 1
  - symbol: Li # 3
    coordinates: [  0.936441068168233,  0.055230902233251,  0.206778046684528 ]
    mass: 6.940000
    reduced_to: 1
  - symbol: Li # 4
    coordinates: [  0.269774401501567,  0.388564235566584,  0.206778046684528 ]
    mass: 6.940000
    reduced_to: 1
  - symbol: Li # 5
    coordinates: [  0.603107734834900,  0.388564235566584,  0.206778046684528 ]
    mass: 6.940000
    reduced_to: 1
  - symbol: Li # 6
    coordinates: [  0.936441068168233,  0.388564235566584,  0.206778046684528 ]
    mass: 6.940000
    reduced_to: 1
  - symbol: Li # 7
    coordinates: [  0.269774401501567,  0.721897568899918,  0.206778046684528 ]
    mass: 6.940000
    reduced_to: 1
  - symbol: Li # 8
    coordinates: [  0.603107734834900,  0.721897568899918,  0.206778046684528 ]
    mass: 6.940000
    reduced_to: 1
  - symbol: Li # 9
    coordinates: [  0.936441068168233,  0.721897568899918,  0.206778046684528 ]
    mass: 6.940000
    reduced_to: 1
  - symbol: Li # 10
    coordinates: [  0.160022166369255,  0.166393003235451,  0.568195778049215 ]
    mass: 6.940000
    reduced_to: 10
  - symbol: Li # 11
    coordinates: [  0.493355499702589,  0.166393003235451,  0.568195778049215 ]
    mass: 6.940000
    reduced_to: 10
  - symbol: Li # 12
    coordinates: [  0.826688833035922,  0.166393003235451,  0.568195778049215 ]
    mass: 6.940000
    reduced_to: 10
  - symbol: Li # 13
    coordinates: [  0.160022166369255,  0.499726336568784,  0.568195778049215 ]
    mass: 6.940000
    reduced_to: 10
  - symbol: Li # 14
    coordinates: [  0.493355499702589,  0.499726336568784,  0.568195778049215 ]
    mass: 6.940000
    reduced_to: 10
  - symbol: Li # 15
    coordinates: [  0.826688833035922,  0.499726336568784,  0.568195778049215 ]
    mass: 6.940000
    reduced_to: 10
  - symbol: Li # 16
    coordinates: [  0.160022166369255,  0.833059669902118,  0.568195778049215 ]
    mass: 6.940000
    reduced_to: 10
  - symbol: Li # 17
    coordinates: [  0.493355499702589,  0.833059669902118,  0.568195778049215 ]
    mass: 6.940000
    reduced_to: 10
  - symbol: Li # 18
    coordinates: [  0.826688833035922,  0.833059669902118,  0.568195778049215 ]
    mass: 6.940000
    reduced_to: 10
  - symbol: Li # 19
    coordinates: [  0.048225941217459,  0.277463002662430,  0.767596000344528 ]
    mass: 6.940000
    reduced_to: 19
  - symbol: Li # 20
    coordinates: [  0.381559274550793,  0.277463002662430,  0.767596000344528 ]
    mass: 6.940000
    reduced_to: 19
  - symbol: Li # 21
    coordinates: [  0.714892607884126,  0.277463002662430,  0.767596000344528 ]
    mass: 6.940000
    reduced_to: 19
  - symbol: Li # 22
    coordinates: [  0.048225941217459,  0.610796335995763,  0.767596000344528 ]
    mass: 6.940000
    reduced_to: 19
  - symbol: Li # 23
    coordinates: [  0.381559274550793,  0.610796335995763,  0.767596000344528 ]
    mass: 6.940000
    reduced_to: 19
  - symbol: Li # 24
    coordinates: [  0.714892607884126,  0.610796335995763,  0.767596000344528 ]
    mass: 6.940000
    reduced_to: 19
  - symbol: Li # 25
    coordinates: [  0.048225941217459,  0.944129669329096,  0.767596000344528 ]
    mass: 6.940000
    reduced_to: 19
  - symbol: Li # 26
    coordinates: [  0.381559274550793,  0.944129669329096,  0.767596000344528 ]
    mass: 6.940000
    reduced_to: 19
  - symbol: Li # 27
    coordinates: [  0.714892607884126,  0.944129669329096,  0.767596000344528 ]
    mass: 6.940000
    reduced_to: 19
  - symbol: Sn # 28
    coordinates: [  0.048382179555135,  0.277513855498812,  0.362141147514470 ]
    mass: 118.710000
    reduced_to: 28
  - symbol: Sn # 29
    coordinates: [  0.381715512888469,  0.277513855498812,  0.362141147514470 ]
    mass: 118.710000
    reduced_to: 28
  - symbol: Sn # 30
    coordinates: [  0.715048846221802,  0.277513855498812,  0.362141147514470 ]
    mass: 118.710000
    reduced_to: 28
  - symbol: Sn # 31
    coordinates: [  0.048382179555135,  0.610847188832146,  0.362141147514470 ]
    mass: 118.710000
    reduced_to: 28
  - symbol: Sn # 32
    coordinates: [  0.381715512888469,  0.610847188832146,  0.362141147514470 ]
    mass: 118.710000
    reduced_to: 28
  - symbol: Sn # 33
    coordinates: [  0.715048846221802,  0.610847188832146,  0.362141147514470 ]
    mass: 118.710000
    reduced_to: 28
  - symbol: Sn # 34
    coordinates: [  0.048382179555135,  0.944180522165479,  0.362141147514470 ]
    mass: 118.710000
    reduced_to: 28
  - symbol: Sn # 35
    coordinates: [  0.381715512888469,  0.944180522165479,  0.362141147514470 ]
    mass: 118.710000
    reduced_to: 28
  - symbol: Sn # 36
    coordinates: [  0.715048846221802,  0.944180522165479,  0.362141147514470 ]
    mass: 118.710000
    reduced_to: 28
  - symbol: Sn # 37
    coordinates: [  0.271030777308229,  0.055258953336381,  0.449235428673022 ]
    mass: 118.710000
    reduced_to: 37
  - symbol: Sn # 38
    coordinates: [  0.604364110641563,  0.055258953336381,  0.449235428673022 ]
    mass: 118.710000
    reduced_to: 37
  - symbol: Sn # 39
    coordinates: [  0.937697443974896,  0.055258953336381,  0.449235428673022 ]
    mass: 118.710000
    reduced_to: 37
  - symbol: Sn # 40
    coordinates: [  0.271030777308229,  0.388592286669714,  0.449235428673022 ]
    mass: 118.710000
    reduced_to: 37
  - symbol: Sn # 41
    coordinates: [  0.604364110641563,  0.388592286669714,  0.449235428673022 ]
    mass: 118.710000
    reduced_to: 37
  - symbol: Sn # 42
    coordinates: [  0.937697443974896,  0.388592286669714,  0.449235428673022 ]
    mass: 118.710000
    reduced_to: 37
  - symbol: Sn # 43
    coordinates: [  0.271030777308229,  0.721925620003047,  0.449235428673022 ]
    mass: 118.710000
    reduced_to: 37
  - symbol: Sn # 44
    coordinates: [  0.604364110641563,  0.721925620003047,  0.449235428673022 ]
    mass: 118.710000
    reduced_to: 37
  - symbol: Sn # 45
    coordinates: [  0.937697443974896,  0.721925620003047,  0.449235428673022 ]
    mass: 118.710000
    reduced_to: 37
  - symbol: Sn # 46
    coordinates: [  0.270209998265271,  0.055216716793922,  0.958966128470729 ]
    mass: 118.710000
    reduced_to: 46
  - symbol: Sn # 47
    coordinates: [  0.603543331598604,  0.055216716793922,  0.958966128470729 ]
    mass: 118.710000
    reduced_to: 46
  - symbol: Sn # 48
    coordinates: [  0.936876664931937,  0.055216716793922,  0.958966128470729 ]
    mass: 118.710000
    reduced_to: 46
  - symbol: Sn # 49
    coordinates: [  0.270209998265271,  0.388550050127256,  0.958966128470729 ]
    mass: 118.710000
    reduced_to: 46
  - symbol: Sn # 50
    coordinates: [  0.603543331598604,  0.388550050127256,  0.958966128470729 ]
    mass: 118.710000
    reduced_to: 46
  - symbol: Sn # 51
    coordinates: [  0.936876664931937,  0.388550050127256,  0.958966128470729 ]
    mass: 118.710000
    reduced_to: 46
  - symbol: Sn # 52
    coordinates: [  0.270209998265271,  0.721883383460589,  0.958966128470729 ]
    mass: 118.710000
    reduced_to: 46
  - symbol: Sn # 53
    coordinates: [  0.603543331598604,  0.721883383460589,  0.958966128470729 ]
    mass: 118.710000
    reduced_to: 46
  - symbol: Sn # 54
    coordinates: [  0.936876664931937,  0.721883383460589,  0.958966128470729 ]
    mass: 118.710000
    reduced_to: 46
  - symbol: Sn # 55
    coordinates: [  0.270571660691379,  0.055252382681689,  0.693965237918521 ]
    mass: 118.710000
    reduced_to: 55
  - symbol: Sn # 56
    coordinates: [  0.603904994024713,  0.055252382681689,  0.693965237918521 ]
    mass: 118.710000
    reduced_to: 55
  - symbol: Sn # 57
    coordinates: [  0.937238327358046,  0.055252382681689,  0.693965237918521 ]
    mass: 118.710000
    reduced_to: 55
  - symbol: Sn # 58
    coordinates: [  0.270571660691379,  0.388585716015023,  0.693965237918521 ]
    mass: 118.710000
    reduced_to: 55
  - symbol: Sn # 59
    coordinates: [  0.603904994024713,  0.388585716015023,  0.693965237918521 ]
    mass: 118.710000
    reduced_to: 55
  - symbol: Sn # 60
    coordinates: [  0.937238327358046,  0.388585716015023,  0.693965237918521 ]
    mass: 118.710000
    reduced_to: 55
  - symbol: Sn # 61
    coordinates: [  0.270571660691379,  0.721919049348356,  0.693965237918521 ]
    mass: 118.710000
    reduced_to: 55
  - symbol: Sn # 62
    coordinates: [  0.603904994024713,  0.721919049348356,  0.693965237918521 ]
    mass: 118.710000
    reduced_to: 55
  - symbol: Sn # 63
    coordinates: [  0.937238327358046,  0.721919049348356,  0.693965237918521 ]
    mass: 118.710000
    reduced_to: 55
  - symbol: Sn # 64
    coordinates: [  0.047735945729184,  0.277423239809859,  0.084506520122768 ]
    mass: 118.710000
    reduced_to: 64
  - symbol: Sn # 65
    coordinates: [  0.381069279062517,  0.277423239809859,  0.084506520122768 ]
    mass: 118.710000
    reduced_to: 64
  - symbol: Sn # 66
    coordinates: [  0.714402612395850,  0.277423239809859,  0.084506520122768 ]
    mass: 118.710000
    reduced_to: 64
  - symbol: Sn # 67
    coordinates: [  0.047735945729184,  0.610756573143193,  0.084506520122768 ]
    mass: 118.710000
    reduced_to: 64
  - symbol: Sn # 68
    coordinates: [  0.381069279062517,  0.610756573143193,  0.084506520122768 ]
    mass: 118.710000
    reduced_to: 64
  - symbol: Sn # 69
    coordinates: [  0.714402612395850,  0.610756573143193,  0.084506520122768 ]
    mass: 118.710000
    reduced_to: 64
  - symbol: Sn # 70
    coordinates: [  0.047735945729184,  0.944089906476526,  0.084506520122768 ]
    mass: 118.710000
    reduced_to: 64
  - symbol: Sn # 71
    coordinates: [  0.381069279062517,  0.944089906476526,  0.084506520122768 ]
    mass: 118.710000
    reduced_to: 64
  - symbol: Sn # 72
    coordinates: [  0.714402612395850,  0.944089906476526,  0.084506520122768 ]
    mass: 118.710000
    reduced_to: 64
  - symbol: Sn # 73
    coordinates: [  0.158961439664258,  0.166315463149677,  0.213555458907562 ]
    mass: 118.710000
    reduced_to: 73
  - symbol: Sn # 74
    coordinates: [  0.492294772997592,  0.166315463149677,  0.213555458907562 ]
    mass: 118.710000
    reduced_to: 73
  - symbol: Sn # 75
    coordinates: [  0.825628106330925,  0.166315463149677,  0.213555458907562 ]
    mass: 118.710000
    reduced_to: 73
  - symbol: Sn # 76
    coordinates: [  0.158961439664258,  0.499648796483010,  0.213555458907562 ]
    mass: 118.710000
    reduced_to: 73
  - symbol: Sn # 77
    coordinates: [  0.492294772997592,  0.499648796483010,  0.213555458907562 ]
    mass: 118.710000
    reduced_to: 73
  - symbol: Sn # 78
    coordinates: [  0.825628106330925,  0.499648796483010,  0.213555458907562 ]
    mass: 118.710000
    reduced_to: 73
  - symbol: Sn # 79
    coordinates: [  0.158961439664258,  0.832982129816344,  0.213555458907562 ]
    mass: 118.710000
    reduced_to: 73
  - symbol: Sn # 80
    coordinates: [  0.492294772997592,  0.832982129816344,  0.213555458907562 ]
    mass: 118.710000
    reduced_to: 73
  - symbol: Sn # 81
    coordinates: [  0.825628106330925,  0.832982129816344,  0.213555458907562 ]
    mass: 118.710000
    reduced_to: 73
  - symbol: Sn # 82
    coordinates: [  0.159239722061433,  0.166349658464111,  0.832859509690613 ]
    mass: 118.710000
    reduced_to: 82
  - symbol: Sn # 83
    coordinates: [  0.492573055394767,  0.166349658464111,  0.832859509690613 ]
    mass: 118.710000
    reduced_to: 82
  - symbol: Sn # 84
    coordinates: [  0.825906388728100,  0.166349658464111,  0.832859509690613 ]
    mass: 118.710000
    reduced_to: 82
  - symbol: Sn # 85
    coordinates: [  0.159239722061433,  0.499682991797445,  0.832859509690613 ]
    mass: 118.710000
    reduced_to: 82
  - symbol: Sn # 86
    coordinates: [  0.492573055394767,  0.499682991797445,  0.832859509690613 ]
    mass: 118.710000
    reduced_to: 82
  - symbol: Sn # 87
    coordinates: [  0.825906388728100,  0.499682991797445,  0.832859509690613 ]
    mass: 118.710000
    reduced_to: 82
  - symbol: Sn # 88
    coordinates: [  0.159239722061433,  0.833016325130778,  0.832859509690613 ]
    mass: 118.710000
    reduced_to: 82
  - symbol: Sn # 89
    coordinates: [  0.492573055394767,  0.833016325130778,  0.832859509690613 ]
    mass: 118.710000
    reduced_to: 82
  - symbol: Sn # 90
    coordinates: [  0.825906388728100,  0.833016325130778,  0.832859509690613 ]
    mass: 118.710000
    reduced_to: 82

displacements:
- atom:    1
  displacement:
    [   0.0100000000000000,  0.0000000000000000,  0.0000000000000000 ]
  forces:
  - [  -0.0219420175999403, -0.0004019622574560, -0.0012568272650242 ]
  - [  -0.0001830590190366,  0.0003507267974783, -0.0010385764762759 ]
  - [  -0.0001951921731234, -0.0007866647792980, -0.0013319328427315 ]
  - [   0.0000877587590367,  0.0005350588471629, -0.0012561576440930 ]
  - [   0.0000943656777963, -0.0009312279289588, -0.0011110026389360 ]
  - [  -0.0001185983419418, -0.0002097863034578, -0.0011880679521710 ]
  - [   0.0000889673829079, -0.0006227996200323, -0.0011098437244073 ]
  - [  -0.0001188367605209, -0.0002110134810209, -0.0011844283435494 ]
  - [   0.0000943988561630,  0.0001884922385216, -0.0012570002581924 ]
  - [  -0.0006774995126761, -0.0003032008826267, -0.0395794585347176 ]
  - [  -0.0006804653676227, -0.0003329341998324, -0.0394212380051613 ]
  - [  -0.0006222161464393, -0.0003159472544212, -0.0394980311393738 ]
  - [  -0.0006853297236376, -0.0003545308136381, -0.0394838042557240 ]
  - [  -0.0006396272801794, -0.0003168261027895, -0.0394985489547253 ]
  - [  -0.0006860306020826, -0.0002802071976475, -0.0395140089094639 ]
  - [  -0.0006530888495035, -0.0003182651416864, -0.0394984856247902 ]
  - [  -0.0006601403001696, -0.0003065277123824, -0.0394935533404350 ]
  - [  -0.0006576949381270, -0.0003281655372120, -0.0395043529570103 ]
  - [   0.0003707334399223, -0.0000017881393433,  0.0478468909859657 ]
  - [   0.0003846442559734, -0.0000034123659134,  0.0478039830923080 ]
  - [   0.0003695984487422, -0.0000028486574593,  0.0477600470185280 ]
  - [   0.0003714500926435, -0.0000010887160897,  0.0478031411767006 ]
  - [   0.0003748300950974,  0.0000038016587496,  0.0477967560291290 ]
  - [   0.0003741907421499, -0.0000087227672338,  0.0478094592690468 ]
  - [   0.0003508082590997, -0.0000220898982661,  0.0477269142866135 ]
  - [   0.0003510428941809,  0.0000159926421475,  0.0478795990347862 ]
  - [   0.0003658137284219, -0.0000032697316783,  0.0478038042783737 ]
  - [   0.0013062704820186, -0.0010156420757994,  0.0254921689629555 ]
  - [   0.0012050939258188, -0.0008338853949681,  0.0258227214217186 ]
  - [   0.0013089997228235, -0.0006586617091671,  0.0261868610978127 ]
  - [   0.0010008485987782, -0.0008349848212674,  0.0258361101150513 ]
  - [   0.0010581639362499, -0.0008641919121146,  0.0257827863097191 ]
  - [   0.0010598672088236, -0.0008070454932749,  0.0258856229484081 ]
  - [   0.0019971879664809, -0.0003700575325638,  0.0248148553073406 ]
  - [   0.0020053065381944, -0.0012874838430434,  0.0268081128597260 ]
  - [   0.0011081121629104, -0.0008334174053743,  0.0258345957845449 ]
  - [   0.0006227022968233,  0.0005761822685599,  0.0030885338783264 ]
  - [   0.0016193826450035,  0.0005205785855651,  0.0028659030795097 ]
  - [   0.0016193540068343,  0.0006121769547462,  0.0032064542174339 ]
  - [   0.0017316304147243,  0.0005672676488757,  0.0030625537037849 ]
  - [   0.0017316841986030,  0.0005589008214884,  0.0030082389712334 ]
  - [   0.0017783883959055,  0.0005638841539621,  0.0030373334884644 ]
  - [   0.0017187502235174,  0.0006749629974365,  0.0028958469629288 ]
  - [   0.0017655380070210,  0.0005613956600428,  0.0030359774827957 ]
  - [   0.0017167031764984,  0.0004372475668788,  0.0031836926937103 ]
  - [  -0.0015539529267699, -0.0000157509639394, -0.0007328521460295 ]
  - [  -0.0011423403630033, -0.0000343036081176, -0.0006861742585897 ]
  - [  -0.0011470777681097, -0.0000014310644474, -0.0007640160620213 ]
  - [  -0.0013058348558843,  0.0000071183749242, -0.0007125753909349 ]
  - [  -0.0013077766634524, -0.0000454786204500, -0.0007317326962948 ]
  - [  -0.0011554935481399, -0.0000180115894182, -0.0007241219282150 ]
  - [  -0.0011898417724296, -0.0001635712396819, -0.0006754659116268 ]
  - [  -0.0012006337055936, -0.0000199887144845, -0.0007218522951007 ]
  - [  -0.0011916684452444,  0.0001266049803235, -0.0007705762982368 ]
  - [   0.0015832344070077,  0.0000170197654370, -0.0179225280880928 ]
  - [   0.0012607871321961,  0.0000218175700866, -0.0179059430956841 ]
  - [   0.0012605334632099,  0.0000102351768874, -0.0179484188556671 ]
  - [   0.0012872263323516,  0.0000490536913276, -0.0179148316383362 ]
  - [   0.0012878155102953, -0.0000146657494042, -0.0179354250431061 ]
  - [   0.0012908608186990,  0.0000153291039169, -0.0179249197244644 ]
  - [   0.0012979395687580,  0.0000192238949239, -0.0178938731551170 ]
  - [   0.0012695309706032,  0.0000151633284986, -0.0179239287972450 ]
  - [   0.0013000760227442,  0.0000120073091239, -0.0179579108953476 ]
  - [  -0.0014367003459483,  0.0001394513819832, -0.0381218083202839 ]
  - [  -0.0015905204927549,  0.0002286742092110, -0.0386359654366970 ]
  - [  -0.0014419668586925,  0.0003359187685419, -0.0391858033835888 ]
  - [  -0.0016089057317004,  0.0002380968071520, -0.0386521667242050 ]
  - [  -0.0016311495564878,  0.0002211994724348, -0.0386132895946503 ]
  - [  -0.0016300545539707,  0.0002591526135802, -0.0386835299432278 ]
  - [   0.0008060758700594,  0.0016277651302516, -0.0366236716508865 ]
  - [   0.0007483833469450, -0.0011056455550715, -0.0406231358647346 ]
  - [  -0.0015974085545167,  0.0002398046781309, -0.0386482998728752 ]
  - [   0.0081042051315308, -0.0057649891823530,  0.0230450741946697 ]
  - [   0.0083032576367259,  0.0072462987154722,  0.0233293622732162 ]
  - [  -0.0001893609296530,  0.0006613169098273,  0.0231782235205173 ]
  - [  -0.0002577636623755,  0.0006253161700442,  0.0231129601597786 ]
  - [  -0.0002309335977770,  0.0006646791589446,  0.0231771618127823 ]
  - [  -0.0002597045386210,  0.0007058242917992,  0.0232416726648808 ]
  - [  -0.0030636419542134,  0.0006325276335701,  0.0231784582138062 ]
  - [  -0.0005521872080863,  0.0008490410400555,  0.0230885371565819 ]
  - [  -0.0005542269791476,  0.0004804511554539,  0.0232735760509968 ]
  - [  -0.0004458822077140, -0.0001003857469186, -0.0019432529807091 ]
  - [  -0.0004396678414196, -0.0000867045091582, -0.0017999410629272 ]
  - [  -0.0004928447306156, -0.0000948737942963, -0.0018729455769062 ]
  - [  -0.0004618780803867, -0.0000781858980190, -0.0019203610718250 ]
  - [  -0.0004208519239910, -0.0000962634512689, -0.0018708854913712 ]
  - [  -0.0004620245308615, -0.0001157290025731, -0.0018207952380180 ]
  - [  -0.0004553849576041, -0.0001007347382256, -0.0018729679286480 ]
  - [  -0.0004470208659768, -0.0000794487350504, -0.0018631555140018 ]
  - [  -0.0004480574280024, -0.0001110335142585, -0.0018794573843479 ]
- atom:    1
  displacement:
    [  -0.0100000000000000,  0.0000000000000000,  0.0000000000000000 ]
  forces:
  - [   0.0213625207543373, -0.0003693120961543, -0.0010685925371945 ]
  - [  -0.0003917367430404, -0.0007809603121132, -0.0013352246023715 ]
  - [  -0.0004036035388708,  0.0003541657933965, -0.0010412969859317 ]
  - [  -0.0006740000098944, -0.0009636486647651, -0.0011151458602399 ]
  - [  -0.0006846725009382,  0.0005030827596784, -0.0012619602493942 ]
  - [  -0.0004658604739234, -0.0002113871887559, -0.0011839000508189 ]
  - [  -0.0006729066371918,  0.0002000797539949, -0.0012632040306926 ]
  - [  -0.0004665106534958, -0.0002128668129444, -0.0011844411492348 ]
  - [  -0.0006847754120827, -0.0006103068590164, -0.0011148833436891 ]
  - [  -0.0006621877546422, -0.0003330574836582, -0.0394226908683777 ]
  - [  -0.0006603817455471, -0.0003028853680007, -0.0395793467760086 ]
  - [  -0.0007198720704764, -0.0003191575233359, -0.0394990965723991 ]
  - [  -0.0006554672727361, -0.0002790243306663, -0.0395145341753960 ]
  - [  -0.0007006887462921, -0.0003170683630742, -0.0394993536174297 ]
  - [  -0.0006556078442372, -0.0003525520733092, -0.0394840203225613 ]
  - [  -0.0006872578524053, -0.0003165206289850, -0.0395003184676170 ]
  - [  -0.0006807721802033, -0.0003289460437372, -0.0395021736621857 ]
  - [  -0.0006828001351096, -0.0003065814671572, -0.0394915081560612 ]
  - [   0.0003780772676691, -0.0000029746443033,  0.0477609783411026 ]
  - [   0.0003622340736911, -0.0000029802322388,  0.0478040575981140 ]
  - [   0.0003778703976423, -0.0000011110423657,  0.0478476136922836 ]
  - [   0.0003765553701669, -0.0000010905787349,  0.0478036105632782 ]
  - [   0.0003722411929630, -0.0000073676928878,  0.0478090494871140 ]
  - [   0.0003716220962815,  0.0000029206275940,  0.0477964878082275 ]
  - [   0.0003968342207372,  0.0000179429443961,  0.0478812158107758 ]
  - [   0.0003959811292589, -0.0000223730203288,  0.0477285757660866 ]
  - [   0.0003831810317934, -0.0000036627498048,  0.0478033721446991 ]
  - [   0.0007347327191383, -0.0006514138076454,  0.0261856839060783 ]
  - [   0.0008468072628602, -0.0008597398409620,  0.0258326530456543 ]
  - [   0.0007544034742750, -0.0010088011622429,  0.0254919566214085 ]
  - [   0.0010556085035205, -0.0008316065650433,  0.0258265770971775 ]
  - [   0.0009986385703087, -0.0008091510389931,  0.0258845426142216 ]
  - [   0.0009922466706485, -0.0008642741013318,  0.0257793739438057 ]
  - [   0.0000576155725867, -0.0012916319537908,  0.0268798433244228 ]
  - [   0.0000379267148674, -0.0003746210131794,  0.0248843282461166 ]
  - [   0.0009466845076531, -0.0008366437396035,  0.0258318744599819 ]
  - [   0.0029540974646807,  0.0005428595468402,  0.0029205158352852 ]
  - [   0.0019500746857375,  0.0006061997264624,  0.0032028257846832 ]
  - [   0.0019694822840393,  0.0005106227472425,  0.0028611496090889 ]
  - [   0.0018435772508383,  0.0005589174106717,  0.0030088275671005 ]
  - [   0.0018458856502548,  0.0005668066442013,  0.0030631422996521 ]
  - [   0.0017984053120017,  0.0005628783255816,  0.0030374377965927 ]
  - [   0.0018539233133197,  0.0004486897960305,  0.0031749382615089 ]
  - [   0.0018090568482876,  0.0005621491000056,  0.0030360370874405 ]
  - [   0.0018591508269310,  0.0006863875314593,  0.0028882622718811 ]
  - [  -0.0007817993755452, -0.0000251792225754, -0.0006614523008466 ]
  - [  -0.0012003493029624, -0.0000071303948062, -0.0007488159462810 ]
  - [  -0.0011806301772594, -0.0000398181582568, -0.0006710644811392 ]
  - [  -0.0010323575697839, -0.0000477824651171, -0.0007272167131305 ]
  - [  -0.0010281529976055,  0.0000053178082453, -0.0007110834121704 ]
  - [  -0.0011806671973318, -0.0000214959000004, -0.0007219556719065 ]
  - [  -0.0011515845544636,  0.0001196263183374, -0.0007663425058126 ]
  - [  -0.0011376460315660, -0.0000201454968192, -0.0007215403020382 ]
  - [  -0.0011460060486570, -0.0001693181693554, -0.0006708167493343 ]
  - [   0.0009939958108589,  0.0000156592013809, -0.0179330185055733 ]
  - [   0.0013136022025719,  0.0000117201125249, -0.0179438143968582 ]
  - [   0.0013135013869032,  0.0000199282076210, -0.0179020017385483 ]
  - [   0.0012883739545941, -0.0000141815980896, -0.0179357454180717 ]
  - [   0.0012901963200420,  0.0000493613551953, -0.0179143100976944 ]
  - [   0.0012871059589088,  0.0000153926666826, -0.0179250612854958 ]
  - [   0.0012793205678463,  0.0000114315189421, -0.0179532617330551 ]
  - [   0.0013083480298519,  0.0000159705523401, -0.0179241374135017 ]
  - [   0.0012796828523278,  0.0000194110907614, -0.0178906321525574 ]
  - [  -0.0018478295532987,  0.0003400282294024, -0.0391801819205284 ]
  - [  -0.0016935908934101,  0.0002237919834442, -0.0386302173137665 ]
  - [  -0.0018404014408588,  0.0001420751505066, -0.0381136387586594 ]
  - [  -0.0016725488239899,  0.0002466165460646, -0.0386408716440201 ]
  - [  -0.0016502522630617,  0.0002586295013316, -0.0386841483414173 ]
  - [  -0.0016512994188815,  0.0002195716369897, -0.0386122688651085 ]
  - [  -0.0041479435749352, -0.0011830382281914, -0.0407160073518753 ]
  - [  -0.0039729001000524,  0.0015502375317737, -0.0367162302136421 ]
  - [  -0.0016838180599734,  0.0002399061922915, -0.0386453941464424 ]
  - [  -0.0088047981262207,  0.0073032160289586,  0.0233067236840725 ]
  - [  -0.0086246747523546, -0.0057061035186052,  0.0230211801826954 ]
  - [  -0.0003212934825569,  0.0006641015643254,  0.0231759697198868 ]
  - [  -0.0002527508186176,  0.0007002867641859,  0.0232406780123711 ]
  - [  -0.0002773059532046,  0.0006635623285547,  0.0231752656400204 ]
  - [  -0.0002542045549490,  0.0006204486126080,  0.0231092087924480 ]
  - [   0.0025491046253592,  0.0007566292770207,  0.0231734290719032 ]
  - [   0.0000335490331054,  0.0004823716299143,  0.0232591442763805 ]
  - [   0.0000430258223787,  0.0008504644501954,  0.0230731181800365 ]
  - [  -0.0004476411268115, -0.0000943143240875, -0.0017981901764870 ]
  - [  -0.0004555764608085, -0.0001087640921469, -0.0019420050084591 ]
  - [  -0.0004001887282357, -0.0000955924115260, -0.0018716193735600 ]
  - [  -0.0004337998689152, -0.0001152286422439, -0.0018226057291031 ]
  - [  -0.0004754660767503, -0.0000956401054282, -0.0018709674477577 ]
  - [  -0.0004349556402303, -0.0000777337772888, -0.0019212551414967 ]
  - [  -0.0004398326855153, -0.0000850482247188, -0.0018673613667488 ]
  - [  -0.0004473765147850, -0.0001109854929382, -0.0018796287477016 ]
  - [  -0.0004465194651857, -0.0000783045325079, -0.0018630027770996 ]
- atom:    1
  displacement:
    [  -0.0050214120992837,  0.0086478564123815,  0.0000000000000000 ]
  forces:
  - [   0.0107167158275843, -0.0188250355422497, -0.0011150583159178 ]
  - [  -0.0008400876540691, -0.0000826042960398, -0.0012611716520041 ]