phonopy:
  version: "2.37.1"
  frequency_unit_conversion_factor: 15.633302
  symmetry_tolerance: 1.00000e-05

space_group:
  type: "Fm-3m"
  number: 225
  Hall_symbol: "-F 4 2 3"

primitive_matrix:
- [ -1.000000000000000,  0.000000000000000,  0.000000000000000 ]
- [  0.000000000000000, -1.000000000000000,  0.000000000000000 ]
- [  1.000000000000000,  1.000000000000000,  1.000000000000000 ]

supercell_matrix:
- [   3,   0,   0 ]
- [   0,   3,   0 ]
- [   0,   0,   3 ]

primitive_cell:
  lattice:
  - [    -2.247636844023171,     1.297673746159577,     3.670375681103606 ] # a
  - [     0.000000014186074,    -2.595347555872018,     3.670375681103606 ] # b
  - [     2.247636891253083,     1.297673746159577,     3.670375681103606 ] # c
  points:
  - symbol: Li # 1
    coordinates: [  0.750000000221987,  0.750000000598604,  0.749999999160796 ]
    mass: 6.940000
  - symbol: Li # 2
    coordinates: [  0.250000000109824,  0.250000000226454,  0.250000001126420 ]
    mass: 6.940000
  - symbol: Li # 3
    coordinates: [  0.499999999529040,  0.499999999859033,  0.499999999797475 ]
    mass: 6.940000
  - symbol: Ga # 4
    coordinates: [  0.000000000226789,  0.999999999184064,  0.999999999948430 ]
    mass: 69.723000
  reciprocal_lattice: # without 2pi
  - [    -0.222455863399951,     0.128434951495534,     0.090817226782634 ] # a*
  - [    -0.000000000000000,    -0.256869901913494,     0.090817223317996 ] # b*
  - [     0.222455863399951,     0.128434950417960,     0.090817224301081 ] # c*

unit_cell:
  lattice:
  - [     4.495273735276255,     0.000000000000000,     0.000000000000000 ] # a
  - [     2.247636877067009,     3.893021302031595,     0.000000000000000 ] # b
  - [     2.247636891253083,     1.297673746159577,     3.670375681103606 ] # c
  points:
  - symbol: Li # 1
    coordinates: [  0.249999999778013,  0.249999999401396,  0.249999999981387 ]
    mass: 6.940000
    reduced_to: 1
  - symbol: Li # 2
    coordinates: [  0.749999999890176,  0.749999999773546,  0.750000001462699 ]
    mass: 6.940000
    reduced_to: 2
  - symbol: Li # 3
    coordinates: [  0.500000000470960,  0.500000000140967,  0.499999999185549 ]
    mass: 6.940000
    reduced_to: 3
  - symbol: Ga # 4
    coordinates: [  0.999999999773210,  0.000000000815936,  0.999999999359283 ]
    mass: 69.723000
    reduced_to: 4

supercell:
  lattice:
  - [    13.485821205828765,     0.000000000000000,     0.000000000000000 ] # a
  - [     6.742910631201028,    11.679063906094786,     0.000000000000000 ] # b
  - [     6.742910673759249,     3.893021238478730,    11.011127043310818 ] # c
  points:
  - symbol: Li # 1
    coordinates: [  0.083333333259338,  0.083333333133799,  0.083333333327129 ]
    mass: 6.940000
    reduced_to: 1
  - symbol: Li # 2
    coordinates: [  0.416666666592671,  0.083333333133799,  0.083333333327129 ]
    mass: 6.940000
    reduced_to: 1
  - symbol: Li # 3
    coordinates: [  0.749999999926004,  0.083333333133799,  0.083333333327129 ]
    mass: 6.940000
    reduced_to: 1
  - symbol: Li # 4
    coordinates: [  0.083333333259338,  0.416666666467132,  0.083333333327129 ]
    mass: 6.940000
    reduced_to: 1
  - symbol: Li # 5
    coordinates: [  0.416666666592671,  0.416666666467132,  0.083333333327129 ]
    mass: 6.940000
    reduced_to: 1
  - symbol: Li # 6
    coordinates: [  0.749999999926004,  0.416666666467132,  0.083333333327129 ]
    mass: 6.940000
    reduced_to: 1
  - symbol: Li # 7
    coordinates: [  0.083333333259338,  0.749999999800465,  0.083333333327129 ]
    mass: 6.940000
    reduced_to: 1
  - symbol: Li # 8
    coordinates: [  0.416666666592671,  0.749999999800465,  0.083333333327129 ]
    mass: 6.940000
    reduced_to: 1
  - symbol: Li # 9
    coordinates: [  0.749999999926004,  0.749999999800465,  0.083333333327129 ]
    mass: 6.940000
    reduced_to: 1
  - symbol: Li # 10
    coordinates: [  0.083333333259338,  0.083333333133799,  0.416666666660462 ]
    mass: 6.940000
    reduced_to: 1
  - symbol: Li # 11
    coordinates: [  0.416666666592671,  0.083333333133799,  0.416666666660462 ]
    mass: 6.940000
    reduced_to: 1
  - symbol: Li # 12
    coordinates: [  0.749999999926004,  0.083333333133799,  0.416666666660462 ]
    mass: 6.940000
    reduced_to: 1
  - symbol: Li # 13
    coordinates: [  0.083333333259338,  0.416666666467132,  0.416666666660462 ]
    mass: 6.940000
    reduced_to: 1
  - symbol: Li # 14
    coordinates: [  0.416666666592671,  0.416666666467132,  0.416666666660462 ]
    mass: 6.940000
    reduced_to: 1
  - symbol: Li # 15
    coordinates: [  0.749999999926004,  0.416666666467132,  0.416666666660462 ]
    mass: 6.940000
    reduced_to: 1
  - symbol: Li # 16
    coordinates: [  0.083333333259338,  0.749999999800465,  0.416666666660462 ]
    mass: 6.940000
    reduced_to: 1
  - symbol: Li # 17
    coordinates: [  0.416666666592671,  0.749999999800465,  0.416666666660462 ]
    mass: 6.940000
    reduced_to: 1
  - symbol: Li # 18
    coordinates: [  0.749999999926004,  0.749999999800465,  0.416666666660462 ]
    mass: 6.940000
    reduced_to: 1
  - symbol: Li # 19
    coordinates: [  0.083333333259338,  0.083333333133799,  0.749999999993796 ]
    mass: 6.940000
    reduced_to: 1
  - symbol: Li # 20
    coordinates: [  0.416666666592671,  0.083333333133799,  0.749999999993796 ]
    mass: 6.940000
    reduced_to: 1
  - symbol: Li # 21
    coordinates: [  0.749999999926004,  0.083333333133799,  0.749999999993796 ]
    mass: 6.940000
    reduced_to: 1
  - symbol: Li # 22
    coordinates: [  0.083333333259338,  0.416666666467132,  0.749999999993796 ]
    mass: 6.940000
    reduced_to: 1
  - symbol: Li # 23
    coordinates: [  0.416666666592671,  0.416666666467132,  0.749999999993796 ]
    mass: 6.940000
    reduced_to: 1
  - symbol: Li # 24
    coordinates: [  0.749999999926004,  0.416666666467132,  0.749999999993796 ]
    mass: 6.940000
    reduced_to: 1
  - symbol: Li # 25
    coordinates: [  0.083333333259338,  0.749999999800465,  0.749999999993796 ]
    mass: 6.940000
    reduced_to: 1
  - symbol: Li # 26
    coordinates: [  0.416666666592671,  0.749999999800465,  0.749999999993796 ]
    mass: 6.940000
    reduced_to: 1
  - symbol: Li # 27
    coordinates: [  0.749999999926004,  0.749999999800465,  0.749999999993796 ]
    mass: 6.940000
    reduced_to: 1
  - symbol: Li # 28
    coordinates: [  0.249999999963392,  0.249999999924515,  0.250000000487566 ]
    mass: 6.940000
    reduced_to: 28
  - symbol: Li # 29
    coordinates: [  0.583333333296725,  0.249999999924515,  0.250000000487566 ]
    mass: 6.940000
    reduced_to: 28
  - symbol: Li # 30
    coordinates: [  0.916666666630059,  0.249999999924515,  0.250000000487566 ]
    mass: 6.940000
    reduced_to: 28
  - symbol: Li # 31
    coordinates: [  0.249999999963392,  0.583333333257849,  0.250000000487566 ]
    mass: 6.940000
    reduced_to: 28
  - symbol: Li # 32
    coordinates: [  0.583333333296725,  0.583333333257849,  0.250000000487566 ]
    mass: 6.940000
    reduced_to: 28
  - symbol: Li # 33
    coordinates: [  0.916666666630059,  0.583333333257849,  0.250000000487566 ]
    mass: 6.940000
    reduced_to: 28
  - symbol: Li # 34
    coordinates: [  0.249999999963392,  0.916666666591182,  0.250000000487566 ]
    mass: 6.940000
    reduced_to: 28
  - symbol: Li # 35
    coordinates: [  0.583333333296725,  0.916666666591182,  0.250000000487566 ]
    mass: 6.940000
    reduced_to: 28
  - symbol: Li # 36
    coordinates: [  0.916666666630059,  0.916666666591182,  0.250000000487566 ]
    mass: 6.940000
    reduced_to: 28
  - symbol: Li # 37
    coordinates: [  0.249999999963392,  0.249999999924515,  0.583333333820900 ]
    mass: 6.940000
    reduced_to: 28
  - symbol: Li # 38
    coordinates: [  0.583333333296725,  0.249999999924515,  0.583333333820900 ]
    mass: 6.940000
    reduced_to: 28
  - symbol: Li # 39
    coordinates: [  0.916666666630059,  0.249999999924515,  0.583333333820900 ]
    mass: 6.940000
    reduced_to: 28
  - symbol: Li # 40
    coordinates: [  0.249999999963392,  0.583333333257849,  0.583333333820900 ]
    mass: 6.940000
    reduced_to: 28
  - symbol: Li # 41
    coordinates: [  0.583333333296725,  0.583333333257849,  0.583333333820900 ]
    mass: 6.940000
    reduced_to: 28
  - symbol: Li # 42
    coordinates: [  0.916666666630059,  0.583333333257849,  0.583333333820900 ]
    mass: 6.940000
    reduced_to: 28
  - symbol: Li # 43
    coordinates: [  0.249999999963392,  0.916666666591182,  0.583333333820900 ]
    mass: 6.940000
    reduced_to: 28
  - symbol: Li # 44
    coordinates: [  0.583333333296725,  0.916666666591182,  0.583333333820900 ]
    mass: 6.940000
    reduced_to: 28
  - symbol: Li # 45
    coordinates: [  0.916666666630059,  0.916666666591182,  0.583333333820900 ]
    mass: 6.940000
    reduced_to: 28
  - symbol: Li # 46
    coordinates: [  0.249999999963392,  0.249999999924515,  0.916666667154233 ]
    mass: 6.940000
    reduced_to: 28
  - symbol: Li # 47
    coordinates: [  0.583333333296725,  0.249999999924515,  0.916666667154233 ]
    mass: 6.940000
    reduced_to: 28
  - symbol: Li # 48
    coordinates: [  0.916666666630059,  0.249999999924515,  0.916666667154233 ]
    mass: 6.940000
    reduced_to: 28
  - symbol: Li # 49
    coordinates: [  0.249999999963392,  0.583333333257849,  0.916666667154233 ]
    mass: 6.940000
    reduced_to: 28
  - symbol: Li # 50
    coordinates: [  0.583333333296725,  0.583333333257849,  0.916666667154233 ]
    mass: 6.940000
    reduced_to: 28
  - symbol: Li # 51
    coordinates: [  0.916666666630059,  0.583333333257849,  0.916666667154233 ]
    mass: 6.940000
    reduced_to: 28
  - symbol: Li # 52
    coordinates: [  0.249999999963392,  0.916666666591182,  0.916666667154233 ]
    mass: 6.940000
    reduced_to: 28
  - symbol: Li # 53
    coordinates: [  0.583333333296725,  0.916666666591182,  0.916666667154233 ]
    mass: 6.940000
    reduced_to: 28
  - symbol: Li # 54
    coordinates: [  0.916666666630059,  0.916666666591182,  0.916666667154233 ]
    mass: 6.940000
    reduced_to: 28
  - symbol: Li # 55
    coordinates: [  0.166666666823653,  0.166666666713656,  0.166666666395183 ]
    mass: 6.940000
    reduced_to: 55
  - symbol: Li # 56
    coordinates: [  0.500000000156987,  0.166666666713656,  0.166666666395183 ]
    mass: 6.940000
    reduced_to: 55
  - symbol: Li # 57
    coordinates: [  0.833333333490320,  0.166666666713656,  0.166666666395183 ]
    mass: 6.940000
    reduced_to: 55
  - symbol: Li # 58
    coordinates: [  0.166666666823653,  0.500000000046989,  0.166666666395183 ]
    mass: 6.940000
    reduced_to: 55
  - symbol: Li # 59
    coordinates: [  0.500000000156987,  0.500000000046989,  0.166666666395183 ]
    mass: 6.940000
    reduced_to: 55
  - symbol: Li # 60
    coordinates: [  0.833333333490320,  0.500000000046989,  0.166666666395183 ]
    mass: 6.940000
    reduced_to: 55
  - symbol: Li # 61
    coordinates: [  0.166666666823653,  0.833333333380322,  0.166666666395183 ]
    mass: 6.940000
    reduced_to: 55
  - symbol: Li # 62
    coordinates: [  0.500000000156987,  0.833333333380322,  0.166666666395183 ]
    mass: 6.940000
    reduced_to: 55
  - symbol: Li # 63
    coordinates: [  0.833333333490320,  0.833333333380322,  0.166666666395183 ]
    mass: 6.940000
    reduced_to: 55
  - symbol: Li # 64
    coordinates: [  0.166666666823653,  0.166666666713656,  0.499999999728516 ]
    mass: 6.940000
    reduced_to: 55
  - symbol: Li # 65
    coordinates: [  0.500000000156987,  0.166666666713656,  0.499999999728516 ]
    mass: 6.940000
    reduced_to: 55
  - symbol: Li # 66
    coordinates: [  0.833333333490320,  0.166666666713656,  0.499999999728516 ]
    mass: 6.940000
    reduced_to: 55
  - symbol: Li # 67
    coordinates: [  0.166666666823653,  0.500000000046989,  0.499999999728516 ]
    mass: 6.940000
    reduced_to: 55
  - symbol: Li # 68
    coordinates: [  0.500000000156987,  0.500000000046989,  0.499999999728516 ]
    mass: 6.940000
    reduced_to: 55
  - symbol: Li # 69
    coordinates: [  0.833333333490320,  0.500000000046989,  0.499999999728516 ]
    mass: 6.940000
    reduced_to: 55
  - symbol: Li # 70
    coordinates: [  0.166666666823653,  0.833333333380322,  0.499999999728516 ]
    mass: 6.940000
    reduced_to: 55
  - symbol: Li # 71
    coordinates: [  0.500000000156987,  0.833333333380322,  0.499999999728516 ]
    mass: 6.940000
    reduced_to: 55
  - symbol: Li # 72
    coordinates: [  0.833333333490320,  0.833333333380322,  0.499999999728516 ]
    mass: 6.940000
    reduced_to: 55
  - symbol: Li # 73
    coordinates: [  0.166666666823653,  0.166666666713656,  0.833333333061850 ]
    mass: 6.940000
    reduced_to: 55
  - symbol: Li # 74
    coordinates: [  0.500000000156987,  0.166666666713656,  0.833333333061850 ]
    mass: 6.940000
    reduced_to: 55
  - symbol: Li # 75
    coordinates: [  0.833333333490320,  0.166666666713656,  0.833333333061850 ]
    mass: 6.940000
    reduced_to: 55
  - symbol: Li # 76
    coordinates: [  0.166666666823653,  0.500000000046989,  0.833333333061850 ]
    mass: 6.940000
    reduced_to: 55
  - symbol: Li # 77
    coordinates: [  0.500000000156987,  0.500000000046989,  0.833333333061850 ]
    mass: 6.940000
    reduced_to: 55
  - symbol: Li # 78
    coordinates: [  0.833333333490320,  0.500000000046989,  0.833333333061850 ]
    mass: 6.940000
    reduced_to: 55
  - symbol: Li # 79
    coordinates: [  0.166666666823653,  0.833333333380322,  0.833333333061850 ]
    mass: 6.940000
    reduced_to: 55
  - symbol: Li # 80
    coordinates: [  0.500000000156987,  0.833333333380322,  0.833333333061850 ]
    mass: 6.940000
    reduced_to: 55
  - symbol: Li # 81
    coordinates: [  0.833333333490320,  0.833333333380322,  0.833333333061850 ]
    mass: 6.940000
    reduced_to: 55
  - symbol: Ga # 82
    coordinates: [  0.333333333257737,  0.000000000271979,  0.333333333119761 ]
    mass: 69.723000
    reduced_to: 82
  - symbol: Ga # 83
    coordinates: [  0.666666666591070,  0.000000000271979,  0.333333333119761 ]
    mass: 69.723000
    reduced_to: 82
  - symbol: Ga # 84
    coordinates: [  0.999999999924403,  0.000000000271979,  0.333333333119761 ]
    mass: 69.723000
    reduced_to: 82
  - symbol: Ga # 85
    coordinates: [  0.333333333257737,  0.333333333605312,  0.333333333119761 ]
    mass: 69.723000
    reduced_to: 82
  - symbol: Ga # 86
    coordinates: [  0.666666666591070,  0.333333333605312,  0.333333333119761 ]
    mass: 69.723000
    reduced_to: 82
  - symbol: Ga # 87
    coordinates: [  0.999999999924403,  0.333333333605312,  0.333333333119761 ]
    mass: 69.723000
    reduced_to: 82
  - symbol: Ga # 88
    coordinates: [  0.333333333257737,  0.666666666938645,  0.333333333119761 ]
    mass: 69.723000
    reduced_to: 82
  - symbol: Ga # 89
    coordinates: [  0.666666666591070,  0.666666666938645,  0.333333333119761 ]
    mass: 69.723000
    reduced_to: 82
  - symbol: Ga # 90
    coordinates: [  0.999999999924403,  0.666666666938645,  0.333333333119761 ]
    mass: 69.723000
    reduced_to: 82
  - symbol: Ga # 91
    coordinates: [  0.333333333257737,  0.000000000271979,  0.666666666453094 ]
    mass: 69.723000
    reduced_to: 82
  - symbol: Ga # 92
    coordinates: [  0.666666666591070,  0.000000000271979,  0.666666666453094 ]
    mass: 69.723000
    reduced_to: 82
  - symbol: Ga # 93
    coordinates: [  0.999999999924403,  0.000000000271979,  0.666666666453094 ]
    mass: 69.723000
    reduced_to: 82
  - symbol: Ga # 94
    coordinates: [  0.333333333257737,  0.333333333605312,  0.666666666453094 ]
    mass: 69.723000
    reduced_to: 82
  - symbol: Ga # 95
    coordinates: [  0.666666666591070,  0.333333333605312,  0.666666666453094 ]
    mass: 69.723000
    reduced_to: 82
  - symbol: Ga # 96
    coordinates: [  0.999999999924403,  0.333333333605312,  0.666666666453094 ]
    mass: 69.723000
    reduced_to: 82
  - symbol: Ga # 97
    coordinates: [  0.333333333257737,  0.666666666938645,  0.666666666453094 ]
    mass: 69.723000
    reduced_to: 82
  - symbol: Ga # 98
    coordinates: [  0.666666666591070,  0.666666666938645,  0.666666666453094 ]
    mass: 69.723000
    reduced_to: 82
  - symbol: Ga # 99
    coordinates: [  0.999999999924403,  0.666666666938645,  0.666666666453094 ]
    mass: 69.723000
    reduced_to: 82
  - symbol: Ga # 100
    coordinates: [  0.333333333257737,  0.000000000271979,  0.999999999786428 ]
    mass: 69.723000
    reduced_to: 82
  - symbol: Ga # 101
    coordinates: [  0.666666666591070,  0.000000000271979,  0.999999999786428 ]
    mass: 69.723000
    reduced_to: 82
  - symbol: Ga # 102
    coordinates: [  0.999999999924403,  0.000000000271979,  0.999999999786428 ]
    mass: 69.723000
    reduced_to: 82
  - symbol: Ga # 103
    coordinates: [  0.333333333257737,  0.333333333605312,  0.999999999786428 ]
    mass: 69.723000
    reduced_to: 82
  - symbol: Ga # 104
    coordinates: [  0.666666666591070,  0.333333333605312,  0.999999999786428 ]
    mass: 69.723000
    reduced_to: 82
  - symbol: Ga # 105
    coordinates: [  0.999999999924403,  0.333333333605312,  0.999999999786428 ]
    mass: 69.723000
    reduced_to: 82
  - symbol: Ga # 106
    coordinates: [  0.333333333257737,  0.666666666938645,  0.999999999786428 ]
    mass: 69.723000
    reduced_to: 82
  - symbol: Ga # 107
    coordinates: [  0.666666666591070,  0.666666666938645,  0.999999999786428 ]
    mass: 69.723000
    reduced_to: 82
  - symbol: Ga # 108
    coordinates: [  0.999999999924403,  0.666666666938645,  0.999999999786428 ]
    mass: 69.723000
    reduced_to: 82

displacements:
- atom:    1
  displacement:
    [   0.0100000000000000,  0.0000000000000000,  0.0000000000000000 ]
  forces:
  - [  -0.0249408800154924,  0.0000774888321757,  0.0000540781766176 ]
  - [  -0.0009323649574071,  0.0001112557947636,  0.0000780979171395 ]
  - [  -0.0009603571379557, -0.0001066895201802, -0.0000760275870562 ]
  - [  -0.0000213602470467, -0.0006386572495103,  0.0001623383723199 ]
  - [   0.0000279153209704, -0.0000001350417733, -0.0000003259629011 ]
  - [  -0.0000281830580207,  0.0006433045491576, -0.0001630652695894 ]
  - [  -0.0000304374843836, -0.0004285490140319,  0.0000856611877680 ]
  - [  -0.0000212285667658,  0.0004164092242718, -0.0000854460522532 ]
  - [   0.0000239154323936, -0.0000005522742867, -0.0000004135072231 ]
  - [  -0.0000209014979191, -0.0000591897405684, -0.0006567430682480 ]
  - [   0.0000281905086013, -0.0000002391170710, -0.0000011462252587 ]
  - [  -0.0000277381404885,  0.0000603643711656,  0.0006603670772165 ]
  - [   0.0000091137044365,  0.0000094320857897,  0.0000062268227339 ]
  - [   0.0000112622365123, -0.0000096170260804, -0.0000070631504059 ]
  - [  -0.0000250466109719, -0.0000003406021278, -0.0000006416812539 ]
  - [   0.0000782734568929, -0.0000031688250601,  0.0000004947651178 ]
  - [  -0.0000224777031690, -0.0000021332380129,  0.0000010067597032 ]
  - [  -0.0000190830178326,  0.0000006659829523, -0.0000026561319828 ]
  - [  -0.0000304474378936, -0.0000610933639109, -0.0004320191219449 ]
  - [  -0.0000211948645301,  0.0000584925292060,  0.0004210649058223 ]
  - [   0.0000251078745350,  0.0000005661277100, -0.0000000400468707 ]
  - [   0.0000784443982411,  0.0000004048924893, -0.0000020861625671 ]
  - [  -0.0000221249647439,  0.0000008223141776, -0.0000018179416656 ]
  - [  -0.0000192146544578, -0.0000013636454241,  0.0000013941898942 ]
  - [   0.0000120620243251,  0.0000097309093690,  0.0000069849193096 ]
  - [  -0.0000247443676926,  0.0000002679444151, -0.0000000344589353 ]
  - [   0.0000103802740341, -0.0000092012778623, -0.0000064410269260 ]
  - [  -0.0002250699326396, -0.0000788404140621, -0.0000557508319616 ]
  - [  -0.0002239854075015,  0.0000795105006546,  0.0000558756291866 ]
  - [   0.0005512806819752, -0.0000041563762352, -0.0000029979273677 ]
  - [  -0.0000857710838318,  0.0000003273598850,  0.0000001071020961 ]
  - [   0.0000333478674293, -0.0000650989823043,  0.0000042412430048 ]
  - [   0.0000340654514730,  0.0000655085314065, -0.0000049499794841 ]
  - [   0.0009506359347142, -0.0002291399578098,  0.0005347970873117 ]
  - [   0.0001445675152354,  0.0000004356252248, -0.0000003045424819 ]
  - [   0.0009324785205536,  0.0002186167694163, -0.0005168532952666 ]
  - [  -0.0000858865678310,  0.0000008419156075,  0.0000003282912076 ]
  - [   0.0000313203781843, -0.0000172699801624, -0.0000623757950962 ]
  - [   0.0000337930396199,  0.0000181775540113,  0.0000634694006294 ]
  - [   0.0000049262307584, -0.0000010980293155, -0.0000000074505806 ]
  - [  -0.0000087199732661,  0.0000003669410944,  0.0000010114163160 ]
  - [   0.0000040419399738,  0.0000016614794731,  0.0000014528632164 ]
  - [   0.0000334074720740,  0.0000154320150614,  0.0000627995468676 ]
  - [   0.0000359141267836, -0.0000161407515407, -0.0000613364391029 ]
  - [  -0.0003023641183972, -0.0000008530914783,  0.0000025322660804 ]
  - [   0.0009499685838819,  0.0004281634464860, -0.0003946637734771 ]
  - [   0.0001439442858100, -0.0000003436580300, -0.0000002924352884 ]
  - [   0.0009321579709649, -0.0004149992018938,  0.0003774468787014 ]
  - [   0.0000334549695253,  0.0000665960833430, -0.0000052242539823 ]
  - [   0.0000355010852218, -0.0000618761405349,  0.0000051860697567 ]
  - [  -0.0003027329221368,  0.0000041658058763, -0.0000007464550436 ]
  - [   0.0002099312841892,  0.0000048242509365,  0.0000025175977498 ]
  - [  -0.0004320545122027,  0.0000744257122278,  0.0000521126203239 ]
  - [  -0.0004366915673018, -0.0000802516005933, -0.0000572076532990 ]
  - [   0.0047056102193892,  0.0027732774615288,  0.0019611716270447 ]
  - [   0.0001770798116922, -0.0000002672895789, -0.0000003241002560 ]
  - [   0.0046338182874024, -0.0027104420587420, -0.0019162837415934 ]
  - [   0.0000333786010742,  0.0000818446278572,  0.0000041835010052 ]
  - [   0.0000343173742294, -0.0000814311206341, -0.0000043213367462 ]
  - [  -0.0001076236367226,  0.0000004172325134,  0.0000008270144463 ]
  - [  -0.0000799483459559,  0.0000184774398804, -0.0000061839818954 ]
  - [   0.0002167956554331, -0.0001859925687313,  0.0001094248145819 ]
  - [   0.0002149177598767,  0.0001837499439716, -0.0001066271215677 ]
  - [   0.0000337817473337,  0.0000315764918923,  0.0000759437680244 ]
  - [   0.0000344212166965, -0.0000309925526381, -0.0000751558691263 ]
  - [  -0.0001070413272828,  0.0000002970919013, -0.0000001937150955 ]
  - [  -0.0000193386804312,  0.0000000856816769, -0.0000001359730959 ]
  - [   0.0000091753900051,  0.0000075027346611,  0.0000053085386753 ]
  - [   0.0000104636419564, -0.0000082766637206, -0.0000053495168686 ]
  - [   0.0001573637127876, -0.0001508556306362,  0.0000005103647709 ]
  - [  -0.0000042766332626,  0.0000007636845112, -0.0000000838190317 ]
  - [   0.0001574978232384,  0.0001531466841698, -0.0000043641775846 ]
  - [  -0.0000798463588580,  0.0000004544854164,  0.0000193826854229 ]
  - [   0.0002156398259103,  0.0000413283705711, -0.0002121999859810 ]
  - [   0.0002153046661988, -0.0000389516353607,  0.0002092346549034 ]
  - [   0.0001574433408678, -0.0000505065545440, -0.0001437403261662 ]
  - [  -0.0000045951455832, -0.0000004144385457, -0.0000005681067705 ]
  - [   0.0001569235464558,  0.0000460864976048,  0.0001442153006792 ]
  - [   0.0001920964568853,  0.0000935029238462,  0.0000664554536343 ]
  - [   0.0001950180158019, -0.0000955909490585, -0.0000669583678246 ]
  - [  -0.0000947653315961, -0.0000008624047041, -0.0000003427267075 ]
  - [   0.0001735482364893,  0.0000627520494163,  0.0001723999157548 ]
  - [   0.0001765824854374, -0.0000624286476523, -0.0001720730215311 ]
  - [   0.0001924301323015,  0.0000014465767890, -0.0000200392678380 ]
  - [   0.0000003637887858, -0.0000003420282155,  0.0000005224719644 ]
  - [   0.0000059348531067, -0.0000384815502912, -0.0000270726159215 ]
  - [   0.0000053634867072,  0.0000364701263607,  0.0000265734270215 ]
  - [   0.0000026552006602, -0.0001595739740878,  0.0001453580334783 ]
  - [  -0.0000387108884752,  0.0000000065192580, -0.0000002710148692 ]
  - [   0.0000038160942495,  0.0001615402288735, -0.0001460900530219 ]
  - [  -0.0001410389086232,  0.0000003222376108,  0.0000016624107957 ]
  - [   0.0000699150987202, -0.0000359839759767, -0.0001678941771388 ]
  - [   0.0000720429234207,  0.0000359970144928,  0.0001703817397356 ]
  - [   0.0000032703392208,  0.0000833815429360, -0.0001984499394894 ]
  - [  -0.0000379127450287, -0.0000003497116268,  0.0000010738149285 ]
  - [   0.0000038482248783, -0.0000842048320919,  0.0002019917592406 ]
  - [  -0.0000052172690630, -0.0000191323924810, -0.0000125793740153 ]
  - [  -0.0000032726675272,  0.0000185768585652,  0.0000145928934216 ]
  - [   0.0000082519836724, -0.0000003043096513,  0.0000007394701242 ]
  - [   0.0057995775714517, -0.0032489579170942, -0.0022969674319029 ]
  - [   0.0003666323609650, -0.0000004861503839, -0.0000001732259989 ]
  - [   0.0056117121130228,  0.0031151985749602,  0.0022024316713214 ]
  - [   0.0001741377636790,  0.0001826239749789,  0.0000015655532479 ]
  - [   0.0001774169504642, -0.0001841243356466, -0.0000012591481209 ]
  - [   0.0001947856508195, -0.0000198381021619,  0.0000077290460467 ]
  - [  -0.0001423954963684,  0.0000002970919013,  0.0000000325962901 ]
  - [   0.0000724038109183, -0.0001710923388600,  0.0000217435881495 ]
  - [   0.0000720005482435,  0.0001715505495667, -0.0000226655974984 ]
- atom:   55
  displacement:
    [   0.0100000000000000,  0.0000000000000000,  0.0000000000000000 ]
  forces:
  - [   0.0046313251368701,  0.0027117710560560,  0.0019167629070580 ]
  - [   0.0047066193073988, -0.0027727354317904, -0.0019612750038505 ]
  - [   0.0001769840164343,  0.0000008903443813,  0.0000001359730959 ]
  - [  -0.0000788592733443, -0.0000165570527315,  0.0000087972730398 ]
  - [   0.0002184725453844,  0.0001867040991783,  0.0000237701460719 ]
  - [   0.0002137573319487, -0.0001843739300966, -0.0000185724347830 ]
  - [   0.0000333543866873,  0.0000807046890259,  0.0000043474137783 ]
  - [  -0.0001049833372235, -0.0000015469267964,  0.0000005587935448 ]
  - [   0.0000318689271808, -0.0000830003991723, -0.0000046752393246 ]
  - [  -0.0000784098519944,  0.0000035446137190, -0.0000189058482647 ]
  - [   0.0002183859469369,  0.0000847256742418,  0.0001671018544585 ]
  - [   0.0002142950252164, -0.0000790974590927, -0.0001680941786617 ]
  - [   0.0001913728483487, -0.0000290833704639, -0.0000209817662835 ]
  - [  -0.0000940993631957, -0.0000008600763977, -0.0000006156042218 ]
  - [   0.0001917910121847,  0.0000251167948591,  0.0000173039734364 ]
  - [   0.0001562676334288,  0.0000713455956429, -0.0001864950172603 ]
  - [   0.0001567872095620, -0.0000755010260036,  0.0001876903697848 ]
  - [  -0.0000019230938051, -0.0000007025373634, -0.0000004936009645 ]
  - [   0.0000331958726747,  0.0000322259729728,  0.0000753011554480 ]
  - [  -0.0001047934638336,  0.0000003795139492, -0.0000017192214727 ]
  - [   0.0000331165647367, -0.0000309619354084, -0.0000764075666666 ]
  - [   0.0001565171551192, -0.0001509548164904,  0.0001303842291236 ]
  - [   0.0001568870648043,  0.0001525687257526, -0.0001334473490715 ]
  - [  -0.0000020396400942,  0.0000001269072527, -0.0000006249174476 ]
  - [  -0.0000185848912224,  0.0000003152817953,  0.0000003725290298 ]
  - [   0.0000082180631580, -0.0000075101706898, -0.0000055013224483 ]
  - [   0.0000098539603641,  0.0000077128934208,  0.0000054528936744 ]
  - [   0.0047048218548298,  0.0027725372929126,  0.0019604125991464 ]
  - [   0.0001765047200024, -0.0000006193295121, -0.0000008493661880 ]
  - [   0.0046293195337057, -0.0027118395082653, -0.0019174618646502 ]
  - [   0.0000357618591806,  0.0000834632664919,  0.0000042039901018 ]
  - [   0.0000355476513505, -0.0000807372853160, -0.0000044675543904 ]
  - [  -0.0001038420014083,  0.0000017667189240, -0.0000009005889297 ]
  - [  -0.0000787221943028,  0.0000157850445248, -0.0000091865658760 ]
  - [   0.0002164034522139, -0.0001867436803877, -0.0000238148495555 ]
  - [   0.0002138265990652,  0.0001844851067290,  0.0000190008431673 ]
  - [   0.0000355476513505,  0.0000325711444020,  0.0000771945342422 ]
  - [   0.0000333953648806, -0.0000305387657136, -0.0000740922987461 ]
  - [  -0.0001040305942297,  0.0000005825422704,  0.0000020405277610 ]
  - [  -0.0000184066593647, -0.0000000447034836,  0.0000008898787200 ]
  - [   0.0000084801577032,  0.0000079749152064,  0.0000062964390963 ]
  - [   0.0000097546726465, -0.0000072317197919, -0.0000046454370022 ]
  - [   0.0001566908322275, -0.0001539792865515,  0.0001329351216555 ]
  - [  -0.0000018710270524, -0.0000001648440957,  0.0000004093162715 ]
  - [   0.0001568160951138,  0.0001497277989984, -0.0001308061182499 ]
  - [  -0.0000791940838099, -0.0000031385570765,  0.0000175293534994 ]
  - [   0.0002158554270864, -0.0000848704949021, -0.0001687002368271 ]
  - [   0.0002133166417480,  0.0000788783654571,  0.0001667588949203 ]
  - [   0.0001568384468555,  0.0000764792785048, -0.0001883069053292 ]
  - [  -0.0000021783635020,  0.0000016400590539, -0.0000001774169505 ]
  - [   0.0001565692946315, -0.0000709667801857,  0.0001854882575572 ]
  - [   0.0001931153237820, -0.0000245198607445, -0.0000180350616574 ]
  - [   0.0001936876215041,  0.0000301366671920,  0.0000209368299693 ]
  - [  -0.0000928943045437,  0.0000002146698534, -0.0000001522712409 ]
  - [  -0.0164751261472702,  0.0000005336478353,  0.0000001583248377 ]
  - [  -0.0011163875460625,  0.0000001611188054, -0.0000000074505806 ]
  - [  -0.0011110696941614,  0.0000003818422556,  0.0000003315508366 ]
  - [  -0.0002182424068451, -0.0005169399082661,  0.0001846570521593 ]
  - [   0.0000721812248230,  0.0000003688037395, -0.0000001285225153 ]
  - [  -0.0002219602465630,  0.0005173161625862, -0.0001820158213377 ]
  - [  -0.0002200568706030, -0.0005176775157452,  0.0001823045313358 ]
  - [  -0.0002162781893276,  0.0005167424678802, -0.0001848768442869 ]
  - [   0.0000730345491320, -0.0000008530914783, -0.0000001005828381 ]
  - [  -0.0002182238968089,  0.0000022370368242, -0.0005490779876709 ]