phonopy:
  version: "2.37.1"
  frequency_unit_conversion_factor: 15.633302
  symmetry_tolerance: 1.00000e-05

space_group:
  type: "Pmmn"
  number: 59
  Hall_symbol: "P 2 2ab -1ab"

primitive_matrix:
- [  0.000000000000000, -1.000000000000000,  0.000000000000000 ]
- [  1.000000000000000,  0.000000000000000,  0.000000000000000 ]
- [  0.000000000000000,  0.000000000000000,  1.000000000000000 ]

supercell_matrix:
- [   3,   0,   0 ]
- [   0,   3,   0 ]
- [   0,   0,   2 ]

primitive_cell:
  lattice:
  - [    -0.000003063395490,     3.871370272833192,     0.000000000000000 ] # a
  - [    -3.871393920829505,     0.000000000000000,     0.000000000000000 ] # b
  - [     0.000000034337941,    -0.000000421797952,     5.879213565178496 ] # c
  points:
  - symbol: Li # 1
    coordinates: [  0.000000001438170,  0.000000042530319,  0.007258449422377 ]
    mass: 6.940000
  - symbol: Li # 2
    coordinates: [  0.499999997092916,  0.499999931798327,  0.742741556978346 ]
    mass: 6.940000
  - symbol: Sn # 3
    coordinates: [  0.000000006965650,  0.999999994877600,  0.512259206078609 ]
    mass: 118.710000
  - symbol: Sn # 4
    coordinates: [  0.499999993851058,  0.500000029938361,  0.237740788313631 ]
    mass: 118.710000
  reciprocal_lattice: # without 2pi
  - [    -0.000000000000000,     0.258306472779771,     0.000000018531924 ] # a*
  - [    -0.258304894942268,    -0.000000204395342,     0.000000001508632 ] # b*
  - [    -0.000000000000000,     0.000000000000000,     0.170090776413161 ] # c*

unit_cell:
  lattice:
  - [     3.871393920829505,     0.000000000000000,     0.000000000000000 ] # a
  - [    -0.000003063395490,     3.871370272833193,     0.000000000000000 ] # b
  - [     0.000000034337941,    -0.000000421797952,     5.879213565178497 ] # c
  points:
  - symbol: Li # 1
    coordinates: [  0.999999957469681,  0.000000001438170,  0.007258449422377 ]
    mass: 6.940000
    reduced_to: 1
  - symbol: Li # 2
    coordinates: [  0.500000068201673,  0.499999997092916,  0.742741556978346 ]
    mass: 6.940000
    reduced_to: 2
  - symbol: Sn # 3
    coordinates: [  0.000000005122400,  0.000000006965650,  0.512259206078609 ]
    mass: 118.710000
    reduced_to: 3
  - symbol: Sn # 4
    coordinates: [  0.499999970061639,  0.499999993851058,  0.237740788313631 ]
    mass: 118.710000
    reduced_to: 4

supercell:
  lattice:
  - [    11.614181762488517,     0.000000000000000,     0.000000000000000 ] # a
  - [    -0.000009190186470,    11.614110818499578,     0.000000000000000 ] # b
  - [     0.000000068675881,    -0.000000843595905,    11.758427130356994 ] # c
  points:
  - symbol: Li # 1
    coordinates: [  0.333333319156560,  0.000000000479390,  0.003629224711188 ]
    mass: 6.940000
    reduced_to: 1
  - symbol: Li # 2
    coordinates: [  0.666666652489893,  0.000000000479390,  0.003629224711188 ]
    mass: 6.940000
    reduced_to: 1
  - symbol: Li # 3
    coordinates: [  0.999999985823227,  0.000000000479390,  0.003629224711188 ]
    mass: 6.940000
    reduced_to: 1
  - symbol: Li # 4
    coordinates: [  0.333333319156560,  0.333333333812723,  0.003629224711188 ]
    mass: 6.940000
    reduced_to: 1
  - symbol: Li # 5
    coordinates: [  0.666666652489893,  0.333333333812723,  0.003629224711188 ]
    mass: 6.940000
    reduced_to: 1
  - symbol: Li # 6
    coordinates: [  0.999999985823227,  0.333333333812723,  0.003629224711188 ]
    mass: 6.940000
    reduced_to: 1
  - symbol: Li # 7
    coordinates: [  0.333333319156560,  0.666666667146057,  0.003629224711188 ]
    mass: 6.940000
    reduced_to: 1
  - symbol: Li # 8
    coordinates: [  0.666666652489893,  0.666666667146057,  0.003629224711188 ]
    mass: 6.940000
    reduced_to: 1
  - symbol: Li # 9
    coordinates: [  0.999999985823227,  0.666666667146057,  0.003629224711188 ]
    mass: 6.940000
    reduced_to: 1
  - symbol: Li # 10
    coordinates: [  0.333333319156560,  0.000000000479390,  0.503629224711188 ]
    mass: 6.940000
    reduced_to: 1
  - symbol: Li # 11
    coordinates: [  0.666666652489893,  0.000000000479390,  0.503629224711188 ]
    mass: 6.940000
    reduced_to: 1
  - symbol: Li # 12
    coordinates: [  0.999999985823227,  0.000000000479390,  0.503629224711188 ]
    mass: 6.940000
    reduced_to: 1
  - symbol: Li # 13
    coordinates: [  0.333333319156560,  0.333333333812723,  0.503629224711188 ]
    mass: 6.940000
    reduced_to: 1
  - symbol: Li # 14
    coordinates: [  0.666666652489893,  0.333333333812723,  0.503629224711188 ]
    mass: 6.940000
    reduced_to: 1
  - symbol: Li # 15
    coordinates: [  0.999999985823227,  0.333333333812723,  0.503629224711188 ]
    mass: 6.940000
    reduced_to: 1
  - symbol: Li # 16
    coordinates: [  0.333333319156560,  0.666666667146057,  0.503629224711188 ]
    mass: 6.940000
    reduced_to: 1
  - symbol: Li # 17
    coordinates: [  0.666666652489893,  0.666666667146057,  0.503629224711188 ]
    mass: 6.940000
    reduced_to: 1
  - symbol: Li # 18
    coordinates: [  0.999999985823227,  0.666666667146057,  0.503629224711188 ]
    mass: 6.940000
    reduced_to: 1
  - symbol: Li # 19
    coordinates: [  0.166666689400558,  0.166666665697639,  0.371370778489173 ]
    mass: 6.940000
    reduced_to: 19
  - symbol: Li # 20
    coordinates: [  0.500000022733891,  0.166666665697639,  0.371370778489173 ]
    mass: 6.940000
    reduced_to: 19
  - symbol: Li # 21
    coordinates: [  0.833333356067224,  0.166666665697639,  0.371370778489173 ]
    mass: 6.940000
    reduced_to: 19
  - symbol: Li # 22
    coordinates: [  0.166666689400558,  0.499999999030972,  0.371370778489173 ]
    mass: 6.940000
    reduced_to: 19
  - symbol: Li # 23
    coordinates: [  0.500000022733891,  0.499999999030972,  0.371370778489173 ]
    mass: 6.940000
    reduced_to: 19
  - symbol: Li # 24
    coordinates: [  0.833333356067224,  0.499999999030972,  0.371370778489173 ]
    mass: 6.940000
    reduced_to: 19
  - symbol: Li # 25
    coordinates: [  0.166666689400558,  0.833333332364305,  0.371370778489173 ]
    mass: 6.940000
    reduced_to: 19
  - symbol: Li # 26
    coordinates: [  0.500000022733891,  0.833333332364305,  0.371370778489173 ]
    mass: 6.940000
    reduced_to: 19
  - symbol: Li # 27
    coordinates: [  0.833333356067224,  0.833333332364305,  0.371370778489173 ]
    mass: 6.940000
    reduced_to: 19
  - symbol: Li # 28
    coordinates: [  0.166666689400558,  0.166666665697639,  0.871370778489173 ]
    mass: 6.940000
    reduced_to: 19
  - symbol: Li # 29
    coordinates: [  0.500000022733891,  0.166666665697639,  0.871370778489173 ]
    mass: 6.940000
    reduced_to: 19
  - symbol: Li # 30
    coordinates: [  0.833333356067224,  0.166666665697639,  0.871370778489173 ]
    mass: 6.940000
    reduced_to: 19
  - symbol: Li # 31
    coordinates: [  0.166666689400558,  0.499999999030972,  0.871370778489173 ]
    mass: 6.940000
    reduced_to: 19
  - symbol: Li # 32
    coordinates: [  0.500000022733891,  0.499999999030972,  0.871370778489173 ]
    mass: 6.940000
    reduced_to: 19
  - symbol: Li # 33
    coordinates: [  0.833333356067224,  0.499999999030972,  0.871370778489173 ]
    mass: 6.940000
    reduced_to: 19
  - symbol: Li # 34
    coordinates: [  0.166666689400558,  0.833333332364305,  0.871370778489173 ]
    mass: 6.940000
    reduced_to: 19
  - symbol: Li # 35
    coordinates: [  0.500000022733891,  0.833333332364305,  0.871370778489173 ]
    mass: 6.940000
    reduced_to: 19
  - symbol: Li # 36
    coordinates: [  0.833333356067224,  0.833333332364305,  0.871370778489173 ]
    mass: 6.940000
    reduced_to: 19
  - symbol: Sn # 37
    coordinates: [  0.000000001707467,  0.000000002321883,  0.256129603039304 ]
    mass: 118.710000
    reduced_to: 37
  - symbol: Sn # 38
    coordinates: [  0.333333335040800,  0.000000002321883,  0.256129603039304 ]
    mass: 118.710000
    reduced_to: 37
  - symbol: Sn # 39
    coordinates: [  0.666666668374133,  0.000000002321883,  0.256129603039304 ]
    mass: 118.710000
    reduced_to: 37
  - symbol: Sn # 40
    coordinates: [  0.000000001707467,  0.333333335655217,  0.256129603039304 ]
    mass: 118.710000
    reduced_to: 37
  - symbol: Sn # 41
    coordinates: [  0.333333335040800,  0.333333335655217,  0.256129603039304 ]
    mass: 118.710000
    reduced_to: 37
  - symbol: Sn # 42
    coordinates: [  0.666666668374133,  0.333333335655217,  0.256129603039304 ]
    mass: 118.710000
    reduced_to: 37
  - symbol: Sn # 43
    coordinates: [  0.000000001707467,  0.666666668988550,  0.256129603039304 ]
    mass: 118.710000
    reduced_to: 37
  - symbol: Sn # 44
    coordinates: [  0.333333335040800,  0.666666668988550,  0.256129603039304 ]
    mass: 118.710000
    reduced_to: 37
  - symbol: Sn # 45
    coordinates: [  0.666666668374133,  0.666666668988550,  0.256129603039304 ]
    mass: 118.710000
    reduced_to: 37
  - symbol: Sn # 46
    coordinates: [  0.000000001707467,  0.000000002321883,  0.756129603039304 ]
    mass: 118.710000
    reduced_to: 37
  - symbol: Sn # 47
    coordinates: [  0.333333335040800,  0.000000002321883,  0.756129603039304 ]
    mass: 118.710000
    reduced_to: 37
  - symbol: Sn # 48
    coordinates: [  0.666666668374133,  0.000000002321883,  0.756129603039304 ]
    mass: 118.710000
    reduced_to: 37
  - symbol: Sn # 49
    coordinates: [  0.000000001707467,  0.333333335655217,  0.756129603039304 ]
    mass: 118.710000
    reduced_to: 37
  - symbol: Sn # 50
    coordinates: [  0.333333335040800,  0.333333335655217,  0.756129603039304 ]
    mass: 118.710000
    reduced_to: 37
  - symbol: Sn # 51
    coordinates: [  0.666666668374133,  0.333333335655217,  0.756129603039304 ]
    mass: 118.710000
    reduced_to: 37
  - symbol: Sn # 52
    coordinates: [  0.000000001707467,  0.666666668988550,  0.756129603039304 ]
    mass: 118.710000
    reduced_to: 37
  - symbol: Sn # 53
    coordinates: [  0.333333335040800,  0.666666668988550,  0.756129603039304 ]
    mass: 118.710000
    reduced_to: 37
  - symbol: Sn # 54
    coordinates: [  0.666666668374133,  0.666666668988550,  0.756129603039304 ]
    mass: 118.710000
    reduced_to: 37
  - symbol: Sn # 55
    coordinates: [  0.166666656687213,  0.166666664617019,  0.118870394156815 ]
    mass: 118.710000
    reduced_to: 55
  - symbol: Sn # 56
    coordinates: [  0.499999990020546,  0.166666664617019,  0.118870394156815 ]
    mass: 118.710000
    reduced_to: 55
  - symbol: Sn # 57
    coordinates: [  0.833333323353880,  0.166666664617019,  0.118870394156815 ]
    mass: 118.710000
    reduced_to: 55
  - symbol: Sn # 58
    coordinates: [  0.166666656687213,  0.499999997950353,  0.118870394156815 ]
    mass: 118.710000
    reduced_to: 55
  - symbol: Sn # 59
    coordinates: [  0.499999990020546,  0.499999997950353,  0.118870394156815 ]
    mass: 118.710000
    reduced_to: 55
  - symbol: Sn # 60
    coordinates: [  0.833333323353880,  0.499999997950353,  0.118870394156815 ]
    mass: 118.710000
    reduced_to: 55
  - symbol: Sn # 61
    coordinates: [  0.166666656687213,  0.833333331283686,  0.118870394156815 ]
    mass: 118.710000
    reduced_to: 55
  - symbol: Sn # 62
    coordinates: [  0.499999990020546,  0.833333331283686,  0.118870394156815 ]
    mass: 118.710000
    reduced_to: 55
  - symbol: Sn # 63
    coordinates: [  0.833333323353880,  0.833333331283686,  0.118870394156815 ]
    mass: 118.710000
    reduced_to: 55
  - symbol: Sn # 64
    coordinates: [  0.166666656687213,  0.166666664617019,  0.618870394156815 ]
    mass: 118.710000
    reduced_to: 55
  - symbol: Sn # 65
    coordinates: [  0.499999990020546,  0.166666664617019,  0.618870394156815 ]
    mass: 118.710000
    reduced_to: 55
  - symbol: Sn # 66
    coordinates: [  0.833333323353880,  0.166666664617019,  0.618870394156815 ]
    mass: 118.710000
    reduced_to: 55
  - symbol: Sn # 67
    coordinates: [  0.166666656687213,  0.499999997950353,  0.618870394156815 ]
    mass: 118.710000
    reduced_to: 55
  - symbol: Sn # 68
    coordinates: [  0.499999990020546,  0.499999997950353,  0.618870394156815 ]
    mass: 118.710000
    reduced_to: 55
  - symbol: Sn # 69
    coordinates: [  0.833333323353880,  0.499999997950353,  0.618870394156815 ]
    mass: 118.710000
    reduced_to: 55
  - symbol: Sn # 70
    coordinates: [  0.166666656687213,  0.833333331283686,  0.618870394156815 ]
    mass: 118.710000
    reduced_to: 55
  - symbol: Sn # 71
    coordinates: [  0.499999990020546,  0.833333331283686,  0.618870394156815 ]
    mass: 118.710000
    reduced_to: 55
  - symbol: Sn # 72
    coordinates: [  0.833333323353880,  0.833333331283686,  0.618870394156815 ]
    mass: 118.710000
    reduced_to: 55

displacements:
- atom:    1
  displacement:
    [   0.0057496103884959,  0.0057495793655791,  0.0058210237501154 ]
  forces:
  - [  -0.0067967064678669, -0.0067978813312948, -0.0201909318566322 ]
  - [  -0.0005868626758456,  0.0001880580675788, -0.0023505464196205 ]
  - [  -0.0004442771896720,  0.0001846010854933, -0.0025043860077858 ]
  - [   0.0001876857131720, -0.0005872398614883, -0.0023511797189713 ]
  - [   0.0008401991799474,  0.0008403967949562, -0.0032280460000038 ]
  - [  -0.0001982431858778,  0.0000879493018147, -0.0029381662607193 ]
  - [   0.0001837508752942, -0.0004442387726158, -0.0025038570165634 ]
  - [   0.0000870758667588, -0.0001983296242543, -0.0029374063014984 ]
  - [   0.0005438858643174,  0.0005442764959298, -0.0026497468352318 ]
  - [   0.0001623313874006,  0.0001615324872546, -0.0041797980666161 ]
  - [   0.0000546444207430,  0.0000192542247532, -0.0028665885329247 ]
  - [  -0.0000866055488586,  0.0000196194287128, -0.0027270689606667 ]
  - [   0.0000196713954210,  0.0000549219548702, -0.0028680339455605 ]
  - [  -0.0001038331538439, -0.0001040900315274, -0.0024330392479897 ]
  - [   0.0000841291621327, -0.0000908205838641, -0.0026061758399010 ]
  - [   0.0000187447294593, -0.0000876336052897, -0.0027269423007965 ]
  - [  -0.0000915946438909,  0.0000834000893519, -0.0026056617498398 ]
  - [   0.0000707916915417,  0.0000705087441020, -0.0027773976325989 ]
  - [  -0.0000118937896332,  0.0000809916527942,  0.0028178095817566 ]
  - [  -0.0000765750592109, -0.0000759295653552,  0.0029140636324883 ]
  - [   0.0000598371625529, -0.0001536830095574,  0.0026824548840523 ]
  - [  -0.0000778924222686,  0.0000626294422545,  0.0027598738670349 ]
  - [  -0.0001544283004478,  0.0000610243296251,  0.0026823729276657 ]
  - [   0.0002322321379324,  0.0002322444343008,  0.0028025433421135 ]
  - [  -0.0001708256895654, -0.0001707586343400,  0.0027237683534622 ]
  - [   0.0000801987480372, -0.0000108088461275,  0.0028173625469208 ]
  - [   0.0000622761435807, -0.0000784199073678,  0.0027586743235588 ]
  - [   0.0005744591471739, -0.0006041966844350,  0.0034342408180237 ]
  - [   0.0000729951425456,  0.0000745477154851,  0.0022653266787529 ]
  - [   0.0000327187153744,  0.0000151851272676,  0.0027567073702812 ]
  - [  -0.0000451642372354,  0.0000344361396856,  0.0026963204145432 ]
  - [   0.0000155446559802,  0.0000340340702678,  0.0027567222714424 ]
  - [   0.0000291333362838,  0.0000291489996016,  0.0027337223291397 ]
  - [   0.0012372500495985,  0.0012370804324746,  0.0045777633786201 ]
  - [  -0.0006056212587282,  0.0005748167168349,  0.0034331530332565 ]
  - [   0.0000343206920661, -0.0000442767050117,  0.0026968494057655 ]
  - [   0.0002053029747913,  0.0001753428950906,  0.0404949113726616 ]
  - [  -0.0000809973571450, -0.0000837510451674,  0.0461108200252056 ]
  - [   0.0001088037970476,  0.0001697141997283,  0.0409343168139458 ]
  - [   0.0001529185101390, -0.0001812428236008,  0.0406954027712345 ]
  - [   0.0001714788377285,  0.0001060087233782,  0.0409341529011726 ]
  - [  -0.0006896804552525, -0.0006892064120620,  0.0404914915561676 ]
  - [  -0.0003368103643879, -0.0003346214652993,  0.0408875755965710 ]
  - [   0.0001766968052834,  0.0002059507678496,  0.0404935665428638 ]
  - [  -0.0001801449689083,  0.0001536219060654,  0.0406940728425980 ]
  - [   0.0003188564442098,  0.0000405948958360,  0.0408720485866070 ]
  - [   0.0005281586199999,  0.0005263388156891,  0.0478719025850296 ]
  - [  -0.0001969618024305,  0.0000401757024520,  0.0406453721225262 ]
  - [  -0.0000663995742798,  0.0000409614294767,  0.0406322032213211 ]
  - [   0.0000408310443163, -0.0001986287534237,  0.0406473428010941 ]
  - [  -0.0001077350461856, -0.0001072410523193,  0.0406158082187176 ]
  - [  -0.0002111624926329, -0.0002116691321135,  0.0406490638852119 ]
  - [   0.0000415500253439,  0.0003196476027369,  0.0408722758293152 ]
  - [   0.0000395171809942, -0.0000679225486238,  0.0406328849494457 ]
  - [  -0.0017899110680446,  0.0007403616909869, -0.0400806292891502 ]
  - [   0.0038441829383373,  0.0038431663997471, -0.0380097590386868 ]
  - [   0.0002913762582466, -0.0002942290157080, -0.0408049821853638 ]
  - [   0.0000377851974918,  0.0002860138483811, -0.0406582280993462 ]
  - [  -0.0002948044857476,  0.0002922071143985, -0.0408048331737518 ]
  - [   0.0002559916465543,  0.0002565253525972, -0.0408181473612785 ]
  - [   0.0012179674813524,  0.0012176495511085, -0.0420786663889885 ]
  - [   0.0007416382431984, -0.0017905649729073, -0.0400795936584473 ]
  - [   0.0002844389528036,  0.0000383211299777, -0.0406581833958626 ]
  - [  -0.0001251840876648,  0.0001068084238796, -0.0406044498085976 ]
  - [   0.0002381768281339,  0.0002353754825890, -0.0407468453049660 ]
  - [   0.0000181809755304,  0.0000370647867385, -0.0407533384859562 ]
  - [  -0.0000314549070026,  0.0000183838401426, -0.0407057441771030 ]
  - [   0.0000384793565900,  0.0000194517560885, -0.0407535843551159 ]
  - [  -0.0000047353619266, -0.0000048949887059, -0.0407120473682880 ]
  - [   0.0000034029362723,  0.0000041189705371, -0.0404606349766254 ]
  - [   0.0001094436520361, -0.0001218064717250, -0.0406039394438267 ]
  - [   0.0000174548476934, -0.0000303678607452, -0.0407064259052277 ]
- atom:    1
  displacement:
    [  -0.0057496103884959, -0.0057495793655791, -0.0058210237501154 ]
  forces:
  - [   0.0067189941182733,  0.0067194541916251,  0.0147607810795307 ]
  - [   0.0005908980965614, -0.0001805682695704, -0.0030820518732071 ]
  - [   0.0004299602005631, -0.0001843086793087, -0.0029365569353104 ]
  - [  -0.0001809438690543,  0.0005903989076614, -0.0030825138092041 ]
  - [  -0.0008327467367053, -0.0008328082039952, -0.0022174268960953 ]
  - [   0.0002029780298471, -0.0000926262218854, -0.0025030001997948 ]
  - [  -0.0001847427338362,  0.0004297642735764, -0.0029355138540268 ]
  - [  -0.0000935737043619,  0.0002030963514699, -0.0025022253394127 ]
  - [  -0.0005469629541039, -0.0005467441515066, -0.0027894750237465 ]
  - [  -0.0001622671261430, -0.0001630371407373, -0.0012752637267113 ]
  - [  -0.0000549554824829, -0.0000205782798730, -0.0025731027126312 ]
  - [   0.0000886283814907, -0.0000204052030313, -0.0027149841189384 ]
  - [  -0.0000197924673557, -0.0000544171780348, -0.0025746971368790 ]
  - [   0.0001028981059790,  0.0001030506755342, -0.0030080154538155 ]
  - [  -0.0000828905031085,  0.0000899434744497, -0.0028373897075653 ]
  - [  -0.0000209519639611,  0.0000873955286806, -0.0027148500084877 ]
  - [   0.0000894824042916, -0.0000840049760882, -0.0028369128704071 ]
  - [  -0.0000705132260919, -0.0000704057747498, -0.0026651620864868 ]
  - [   0.0000112133147923, -0.0000835551036289,  0.0026248842477798 ]
  - [   0.0000756390363676,  0.0000758851529099,  0.0025360211730003 ]
  - [  -0.0000636778713670,  0.0001553525216877,  0.0027576386928558 ]
  - [   0.0000763073549024, -0.0000610268070886,  0.0026824101805687 ]
  - [   0.0001548026339151, -0.0000619529164396,  0.0027578100562096 ]
  - [  -0.0002311908319825, -0.0002310915151611,  0.0026379898190498 ]
  - [   0.0001691314391792,  0.0001692534569884,  0.0027165114879608 ]
  - [  -0.0000843360903673,  0.0000124656826301,  0.0026244223117828 ]
  - [  -0.0000610806164332,  0.0000758912719903,  0.0026811584830284 ]
  - [  -0.0005715729203075,  0.0006088493391871,  0.0020090565085411 ]
  - [  -0.0000790966732893, -0.0000775537337177,  0.0031714662909508 ]
  - [  -0.0000358054676326, -0.0000175219902303,  0.0026840642094612 ]
  - [   0.0000447595557489, -0.0000338414611178,  0.0027448832988739 ]
  - [  -0.0000169125487446, -0.0000340522165061,  0.0026842653751373 ]
  - [  -0.0000282687597064, -0.0000281664542854,  0.0027079433202744 ]
  - [  -0.0012755770003423, -0.0012753200717270,  0.0008210018277168 ]
  - [   0.0006079156300984, -0.0005718125030398,  0.0020080655813217 ]
  - [  -0.0000340256665368,  0.0000463631586172,  0.0027455464005470 ]
  - [  -0.0002040376857622, -0.0001724464236759,  0.0409026332199574 ]
  - [   0.0000682547979522,  0.0000659050419927,  0.0353857427835464 ]
  - [  -0.0000688714790158, -0.0001787436776794,  0.0404921807348728 ]
  - [  -0.0001468481495976,  0.0001773461699486,  0.0406992100179195 ]
  - [  -0.0001767631620169, -0.0000719055533409,  0.0404915995895863 ]
  - [   0.0006476470734924,  0.0006481455639005,  0.0408842414617538 ]
  - [   0.0003421098808758,  0.0003445175825618,  0.0405021794140339 ]
  - [  -0.0001710705109872, -0.0002033859927906,  0.0409009680151939 ]
  - [   0.0001786584616639, -0.0001466206740588,  0.0406978800892830 ]
  - [  -0.0003616581670940, -0.0000411374494433,  0.0404953509569168 ]
  - [  -0.0005074841901660, -0.0005090758204460,  0.0334151536226273 ]
  - [   0.0002016798825935, -0.0000410172106058,  0.0407495573163033 ]
  - [   0.0000662142410874, -0.0000392515212297,  0.0407618507742882 ]
  - [  -0.0000402797013521,  0.0001992341130972,  0.0407514423131943 ]
  - [   0.0001048260019161,  0.0001052633524523,  0.0407790094614029 ]
  - [   0.0002150535583496,  0.0002133063971996,  0.0407447889447212 ]
  - [  -0.0000395290553570, -0.0003609787672758,  0.0404949858784676 ]
  - [  -0.0000414131791331,  0.0000650874208077,  0.0407622978091240 ]
  - [   0.0017765724333003, -0.0007531908922829, -0.0413289777934551 ]
  - [  -0.0036612066905946, -0.0036621973849833, -0.0432888530194759 ]
  - [  -0.0002833273028955,  0.0002907495945692, -0.0405933596193790 ]
  - [  -0.0000359475088771, -0.0002883276902139, -0.0407391078770161 ]
  - [   0.0002897032827605, -0.0002818582579494, -0.0405931845307350 ]
  - [  -0.0002538725384511, -0.0002529080957174, -0.0405781678855419 ]
  - [  -0.0012251792941242, -0.0012265138793737, -0.0392987988889217 ]
  - [  -0.0007520746439695,  0.0017755292356014, -0.0413282290101051 ]
  - [  -0.0002899505198002, -0.0000358031247742, -0.0407386161386967 ]
  - [   0.0001244309823960, -0.0001064842217602, -0.0407958887517452 ]
  - [  -0.0002355730684940, -0.0002378843782935, -0.0406456179916859 ]
  - [  -0.0000205799660762, -0.0000365748892364, -0.0406426414847374 ]
  - [   0.0000314047065331, -0.0000199900241569, -0.0406897775828838 ]
  - [  -0.0000349667316186, -0.0000189462662092, -0.0406427271664143 ]
  - [   0.0000052566929298,  0.0000053625981309, -0.0406841747462749 ]
  - [  -0.0000081846956164, -0.0000069097804953, -0.0409440360963345 ]
  - [  -0.0001036299072439,  0.0001271926739719, -0.0407947562634945 ]
  - [  -0.0000210683792830,  0.0000331205810653, -0.0406908653676510 ]
- atom:   37
  displacement:
    [   0.0057496103884959,  0.0057495793655791,  0.0058210237501154 ]
  forces:
  - [  -0.0000704191625118,  0.0001738446153468, -0.0026541054248810 ]
  - [   0.0003502434119582,  0.0001698877749732, -0.0027790442109108 ]
  - [  -0.0000693127512932, -0.0000699539232301,  0.0025848969817162 ]
  - [  -0.0004081521183252, -0.0004079192876816, -0.0023961886763573 ]
  - [  -0.0001140069216490,  0.0000842654990265, -0.0027243196964264 ]
  - [   0.0001739617437124, -0.0000706234495738, -0.0026543587446213 ]
  - [   0.0000836374238133, -0.0001133375408244, -0.0027237385511398 ]
  - [  -0.0005940515547991, -0.0005926498561166, -0.0030436441302299 ]
  - [   0.0001700036227703,  0.0003499807789922, -0.0027789995074272 ]
  - [   0.0002129282802343,  0.0000403676749556, -0.0023709014058113 ]
  - [  -0.0000510020181537,  0.0000391166904592, -0.0029176622629166 ]
  - [   0.0005020163953304,  0.0005009882734157,  0.0045853257179260 ]
  - [  -0.0001537417992949, -0.0001532882452011, -0.0028947144746780 ]
  - [  -0.0000218739733100, -0.0000047473458835, -0.0027855634689331 ]
  - [   0.0000412687659264,  0.0002128763590008, -0.0023714601993561 ]
  - [  -0.0000053150579333, -0.0000221761893044, -0.0027856975793839 ]
  - [  -0.0001671444624662, -0.0001669548946666, -0.0026806443929672 ]
  - [   0.0000393707305193, -0.0000513942759426, -0.0029177293181419 ]
  - [   0.0036142366006970,  0.0036153341643512,  0.0059122368693352 ]
  - [   0.0002843720430974, -0.0001998172374442,  0.0025266185402870 ]
  - [  -0.0015392263885587,  0.0004872538847849,  0.0033295452594757 ]
  - [  -0.0001999335654546,  0.0002852041798178,  0.0025268048048019 ]
  - [   0.0002529260236770,  0.0002534763771109,  0.0026013031601906 ]
  - [  -0.0000537817395525,  0.0002892404445447,  0.0028498172760010 ]
  - [   0.0004871618584730, -0.0015381678240374,  0.0033295676112175 ]
  - [   0.0002883997512981, -0.0000539825960004,  0.0028500929474831 ]
  - [   0.0014639820437878,  0.0014640456065536,  0.0008557215332985 ]
  - [   0.0000443404278485,  0.0000450478801213,  0.0030473172664642 ]
  - [   0.0000181884388439, -0.0000204089446925,  0.0027229115366936 ]
  - [   0.0000658843127894, -0.0000849962234497,  0.0028162747621536 ]
  - [  -0.0000217128654185,  0.0000188864087249,  0.0027220621705055 ]
  - [  -0.0000050777953220, -0.0000048537058319,  0.0027060732245445 ]
  - [   0.0000264101490757,  0.0000193528248928,  0.0026556625962257 ]
  - [  -0.0000845456961542,  0.0000668676220812,  0.0028170347213745 ]
  - [   0.0000183161155292,  0.0000258589861915,  0.0026554241776466 ]
  - [   0.0001948256249307,  0.0001954942708835,  0.0025926828384399 ]
  - [  -0.0086428392678499, -0.0086433235555887,  0.0178996697068214 ]
  - [  -0.0001347285287920, -0.0005034878849983,  0.0413281545042992 ]
  - [   0.0010655553778633, -0.0004960891674273,  0.0401625260710716 ]
  - [  -0.0005020573735237, -0.0001351498067379,  0.0413286834955215 ]
  - [   0.0000512786209583,  0.0000493917614222,  0.0405166447162628 ]
  - [  -0.0002693721326068, -0.0000252695390373,  0.0407611019909382 ]
  - [  -0.0004972398746759,  0.0010624080896378,  0.0401607081294060 ]
  - [  -0.0000241206726059, -0.0002677189768292,  0.0407601222395897 ]
  - [  -0.0001914047170430, -0.0001919146452565,  0.0410020872950554 ]
  - [   0.0000468748585263,  0.0000484921038151,  0.0398362427949905 ]
  - [  -0.0000700317323208,  0.0000404687598348,  0.0407491512596607 ]
  - [   0.0000078160082921,  0.0000406409126299,  0.0406715907156467 ]
  - [   0.0000410061329603, -0.0000705365091562,  0.0407490655779839 ]
  - [  -0.0000592656433582, -0.0000602975487709,  0.0407260358333588 ]
  - [   0.0000172082800418, -0.0000369079789380,  0.0406700000166893 ]
  - [   0.0000411979854107,  0.0000049229711294,  0.0406727604568005 ]
  - [  -0.0000343322753906,  0.0000183070078492,  0.0406707040965557 ]
  - [  -0.0000061280443333, -0.0000064687624217,  0.0406165271997452 ]
  - [   0.0004398793389555,  0.0004403631319292, -0.0435810461640358 ]
  - [   0.0005182832246646,  0.0002276780141983, -0.0406407117843628 ]
  - [   0.0012199298944324, -0.0036537479609251, -0.0387263782322407 ]
  - [   0.0002281552733621,  0.0005173669778742, -0.0406398586928844 ]
  - [  -0.0000336559241987, -0.0000326419249177, -0.0406307987868786 ]
  - [  -0.0001955136249308,  0.0005191955715418, -0.0410557053983212 ]
  - [  -0.0036554918624461,  0.0012195234885439, -0.0387259572744370 ]
  - [   0.0005205832421780, -0.0001950230362127, -0.0410563908517361 ]
  - [   0.0052022188901901,  0.0052028521895409, -0.0339955203235149 ]
  - [   0.0001367923541693,  0.0001361702743452, -0.0403721444308758 ]
  - [   0.0000363255639968,  0.0000222350354306, -0.0406795404851437 ]
  - [  -0.0001022377182380,  0.0000072643269959, -0.0404789596796036 ]
  - [   0.0000235254847212,  0.0000339347279805, -0.0406791530549526 ]
  - [   0.0000045911183406,  0.0000045770211727, -0.0407044515013695 ]
  - [  -0.0000262012454186,  0.0000342969287885, -0.0407265089452267 ]
  - [   0.0000077606528066, -0.0001000665797619, -0.0404798984527588 ]
  - [   0.0000360591620847, -0.0000234989765886, -0.0407264381647110 ]
  - [   0.0000264011323452,  0.0000299555467791, -0.0405907928943634 ]
- atom:   37
  displacement:
    [  -0.0057496103884959, -0.0057495793655791, -0.0058210237501154 ]
  forces:
  - [   0.0000666854903102, -0.0001737011480145, -0.0027865990996361 ]
  - [  -0.0003734324127436, -0.0001777747093001, -0.0026811063289642 ]
  - [   0.0000802567228675,  0.0000797809771029, -0.0081402435898781 ]
  - [   0.0004030810669065,  0.0004034768790007, -0.0030430257320404 ]
  - [   0.0001118509098887, -0.0000830267381389, -0.0027209147810936 ]
  - [  -0.0001735212281346,  0.0000663935061311, -0.0027867853641510 ]
  - [  -0.0000841012224555,  0.0001125904600485, -0.0027201846241951 ]
  - [   0.0006103143095970,  0.0006115618161857, -0.0023899301886559 ]
  - [  -0.0001780884340405, -0.0003740100946743, -0.0026812404394150 ]
  - [  -0.0001719202846289, -0.0000410751163145, -0.0030398666858673 ]
  - [   0.0000514294952154, -0.0000423927667725, -0.0025211423635483 ]
  - [  -0.0005331691354513, -0.0005340253119357, -0.0098692774772644 ]
  - [   0.0001484956592321,  0.0001486744731665, -0.0025546103715897 ]
  - [   0.0000212760642171,  0.0000045666583901, -0.0026561617851257 ]
  - [  -0.0000400589779019, -0.0001722034066916, -0.0030403360724449 ]
  - [   0.0000035809352994,  0.0000212452141568, -0.0026561841368675 ]
  - [   0.0001690518110991,  0.0001692222285783, -0.0027618929743767 ]
  - [  -0.0000419719144702,  0.0000511768848810, -0.0025214776396751 ]
  - [  -0.0034001788590103, -0.0033990400843322, -0.0003359615802765 ]
  - [  -0.0002899333194364,  0.0002036975347437,  0.0029171854257584 ]
  - [   0.0015357175143436, -0.0005160551518202,  0.0020806416869164 ]
  - [   0.0002036933146883, -0.0002899706014432,  0.0029174387454987 ]