phonopy:
  version: "2.37.1"
  frequency_unit_conversion_factor: 15.633302
  symmetry_tolerance: 1.00000e-05

space_group:
  type: "P-43m"
  number: 215
  Hall_symbol: "P -4 2 3"

primitive_matrix:
- [  1.000000000000000,  0.000000000000000,  0.000000000000000 ]
- [  0.000000000000000,  1.000000000000000,  0.000000000000000 ]
- [  0.000000000000000,  0.000000000000000,  1.000000000000000 ]

supercell_matrix:
- [   2,   0,   0 ]
- [   0,   2,   0 ]
- [   0,   0,   2 ]

primitive_cell:
  lattice:
  - [     5.689309480652652,     0.000000000000000,     0.000000000000000 ] # a
  - [     0.000000610622632,     5.689309780438978,     0.000000000000000 ] # b
  - [     0.000000647770085,     0.000000433219331,     5.689309588478513 ] # c
  points:
  - symbol: Li # 1
    coordinates: [  0.320476328200893,  0.320476327576673,  0.320476328982080 ]
    mass: 6.940000
  - symbol: Li # 2
    coordinates: [  0.320476327171513,  0.679523664015275,  0.679523670422225 ]
    mass: 6.940000
  - symbol: Li # 3
    coordinates: [  0.679523671765464,  0.679523666105197,  0.320476331497946 ]
    mass: 6.940000
  - symbol: Li # 4
    coordinates: [  0.679523671673952,  0.320476325441976,  0.679523674603294 ]
    mass: 6.940000
  - symbol: Li # 5
    coordinates: [  0.000000003537405,  0.999999993540723,  0.999999989987740 ]
    mass: 6.940000
  - symbol: Sn # 6
    coordinates: [  0.000000003778786,  0.000000013870472,  0.500000002221372 ]
    mass: 118.710000
  - symbol: Sn # 7
    coordinates: [  0.499999996375071,  0.000000008240878,  0.000000002064472 ]
    mass: 118.710000
  - symbol: Sn # 8
    coordinates: [  0.999999997885603,  0.500000000795770,  0.000000000435314 ]
    mass: 118.710000
  reciprocal_lattice: # without 2pi
  - [     0.175768255075708,    -0.000000018864867,    -0.000000020012518 ] # a*
  - [     0.000000000000000,     0.175768245813966,    -0.000000013384085 ] # b*
  - [     0.000000000000000,     0.000000000000000,     0.175768251744484 ] # c*

unit_cell:
  lattice:
  - [     5.689309480652651,     0.000000000000000,     0.000000000000000 ] # a
  - [     0.000000610622632,     5.689309780438977,     0.000000000000000 ] # b
  - [     0.000000647770085,     0.000000433219331,     5.689309588478513 ] # c
  points:
  - symbol: Li # 1
    coordinates: [  0.320476328200893,  0.320476327576673,  0.320476328982080 ]
    mass: 6.940000
    reduced_to: 1
  - symbol: Li # 2
    coordinates: [  0.320476327171513,  0.679523664015275,  0.679523670422225 ]
    mass: 6.940000
    reduced_to: 2
  - symbol: Li # 3
    coordinates: [  0.679523671765464,  0.679523666105197,  0.320476331497946 ]
    mass: 6.940000
    reduced_to: 3
  - symbol: Li # 4
    coordinates: [  0.679523671673952,  0.320476325441976,  0.679523674603294 ]
    mass: 6.940000
    reduced_to: 4
  - symbol: Li # 5
    coordinates: [  0.000000003537405,  0.999999993540723,  0.999999989987740 ]
    mass: 6.940000
    reduced_to: 5
  - symbol: Sn # 6
    coordinates: [  0.000000003778786,  0.000000013870472,  0.500000002221372 ]
    mass: 118.710000
    reduced_to: 6
  - symbol: Sn # 7
    coordinates: [  0.499999996375071,  0.000000008240878,  0.000000002064472 ]
    mass: 118.710000
    reduced_to: 7
  - symbol: Sn # 8
    coordinates: [  0.999999997885603,  0.500000000795771,  0.000000000435314 ]
    mass: 118.710000
    reduced_to: 8

supercell:
  lattice:
  - [    11.378618961305301,     0.000000000000000,     0.000000000000000 ] # a
  - [     0.000001221245265,    11.378619560877954,     0.000000000000000 ] # b
  - [     0.000001295540170,     0.000000866438663,    11.378619176957026 ] # c
  points:
  - symbol: Li # 1
    coordinates: [  0.160238164100447,  0.160238163788336,  0.160238164491040 ]
    mass: 6.940000
    reduced_to: 1
  - symbol: Li # 2
    coordinates: [  0.660238164100447,  0.160238163788336,  0.160238164491040 ]
    mass: 6.940000
    reduced_to: 1
  - symbol: Li # 3
    coordinates: [  0.160238164100447,  0.660238163788337,  0.160238164491040 ]
    mass: 6.940000
    reduced_to: 1
  - symbol: Li # 4
    coordinates: [  0.660238164100447,  0.660238163788337,  0.160238164491040 ]
    mass: 6.940000
    reduced_to: 1
  - symbol: Li # 5
    coordinates: [  0.160238164100447,  0.160238163788336,  0.660238164491040 ]
    mass: 6.940000
    reduced_to: 1
  - symbol: Li # 6
    coordinates: [  0.660238164100447,  0.160238163788336,  0.660238164491040 ]
    mass: 6.940000
    reduced_to: 1
  - symbol: Li # 7
    coordinates: [  0.160238164100447,  0.660238163788337,  0.660238164491040 ]
    mass: 6.940000
    reduced_to: 1
  - symbol: Li # 8
    coordinates: [  0.660238164100447,  0.660238163788337,  0.660238164491040 ]
    mass: 6.940000
    reduced_to: 1
  - symbol: Li # 9
    coordinates: [  0.160238163585756,  0.339761832007637,  0.339761835211112 ]
    mass: 6.940000
    reduced_to: 9
  - symbol: Li # 10
    coordinates: [  0.660238163585756,  0.339761832007637,  0.339761835211112 ]
    mass: 6.940000
    reduced_to: 9
  - symbol: Li # 11
    coordinates: [  0.160238163585756,  0.839761832007637,  0.339761835211112 ]
    mass: 6.940000
    reduced_to: 9
  - symbol: Li # 12
    coordinates: [  0.660238163585756,  0.839761832007637,  0.339761835211112 ]
    mass: 6.940000
    reduced_to: 9
  - symbol: Li # 13
    coordinates: [  0.160238163585756,  0.339761832007637,  0.839761835211112 ]
    mass: 6.940000
    reduced_to: 9
  - symbol: Li # 14
    coordinates: [  0.660238163585756,  0.339761832007637,  0.839761835211112 ]
    mass: 6.940000
    reduced_to: 9
  - symbol: Li # 15
    coordinates: [  0.160238163585756,  0.839761832007637,  0.839761835211112 ]
    mass: 6.940000
    reduced_to: 9
  - symbol: Li # 16
    coordinates: [  0.660238163585756,  0.839761832007637,  0.839761835211112 ]
    mass: 6.940000
    reduced_to: 9
  - symbol: Li # 17
    coordinates: [  0.339761835882732,  0.339761833052598,  0.160238165748973 ]
    mass: 6.940000
    reduced_to: 17
  - symbol: Li # 18
    coordinates: [  0.839761835882732,  0.339761833052598,  0.160238165748973 ]
    mass: 6.940000
    reduced_to: 17
  - symbol: Li # 19
    coordinates: [  0.339761835882732,  0.839761833052598,  0.160238165748973 ]
    mass: 6.940000
    reduced_to: 17
  - symbol: Li # 20
    coordinates: [  0.839761835882732,  0.839761833052598,  0.160238165748973 ]
    mass: 6.940000
    reduced_to: 17
  - symbol: Li # 21
    coordinates: [  0.339761835882732,  0.339761833052598,  0.660238165748973 ]
    mass: 6.940000
    reduced_to: 17
  - symbol: Li # 22
    coordinates: [  0.839761835882732,  0.339761833052598,  0.660238165748973 ]
    mass: 6.940000
    reduced_to: 17
  - symbol: Li # 23
    coordinates: [  0.339761835882732,  0.839761833052598,  0.660238165748973 ]
    mass: 6.940000
    reduced_to: 17
  - symbol: Li # 24
    coordinates: [  0.839761835882732,  0.839761833052598,  0.660238165748973 ]
    mass: 6.940000
    reduced_to: 17
  - symbol: Li # 25
    coordinates: [  0.339761835836976,  0.160238162720988,  0.339761837301647 ]
    mass: 6.940000
    reduced_to: 25
  - symbol: Li # 26
    coordinates: [  0.839761835836976,  0.160238162720988,  0.339761837301647 ]
    mass: 6.940000
    reduced_to: 25
  - symbol: Li # 27
    coordinates: [  0.339761835836976,  0.660238162720988,  0.339761837301647 ]
    mass: 6.940000
    reduced_to: 25
  - symbol: Li # 28
    coordinates: [  0.839761835836976,  0.660238162720988,  0.339761837301647 ]
    mass: 6.940000
    reduced_to: 25
  - symbol: Li # 29
    coordinates: [  0.339761835836976,  0.160238162720988,  0.839761837301647 ]
    mass: 6.940000
    reduced_to: 25
  - symbol: Li # 30
    coordinates: [  0.839761835836976,  0.160238162720988,  0.839761837301647 ]
    mass: 6.940000
    reduced_to: 25
  - symbol: Li # 31
    coordinates: [  0.339761835836976,  0.660238162720988,  0.839761837301647 ]
    mass: 6.940000
    reduced_to: 25
  - symbol: Li # 32
    coordinates: [  0.839761835836976,  0.660238162720988,  0.839761837301647 ]
    mass: 6.940000
    reduced_to: 25
  - symbol: Li # 33
    coordinates: [  0.000000001768702,  0.499999996770362,  0.499999994993870 ]
    mass: 6.940000
    reduced_to: 33
  - symbol: Li # 34
    coordinates: [  0.500000001768703,  0.499999996770362,  0.499999994993870 ]
    mass: 6.940000
    reduced_to: 33
  - symbol: Li # 35
    coordinates: [  0.000000001768702,  0.999999996770362,  0.499999994993870 ]
    mass: 6.940000
    reduced_to: 33
  - symbol: Li # 36
    coordinates: [  0.500000001768703,  0.999999996770362,  0.499999994993870 ]
    mass: 6.940000
    reduced_to: 33
  - symbol: Li # 37
    coordinates: [  0.000000001768702,  0.499999996770362,  0.999999994993870 ]
    mass: 6.940000
    reduced_to: 33
  - symbol: Li # 38
    coordinates: [  0.500000001768703,  0.499999996770362,  0.999999994993870 ]
    mass: 6.940000
    reduced_to: 33
  - symbol: Li # 39
    coordinates: [  0.000000001768702,  0.999999996770362,  0.999999994993870 ]
    mass: 6.940000
    reduced_to: 33
  - symbol: Li # 40
    coordinates: [  0.500000001768703,  0.999999996770362,  0.999999994993870 ]
    mass: 6.940000
    reduced_to: 33
  - symbol: Sn # 41
    coordinates: [  0.000000001889393,  0.000000006935236,  0.250000001110686 ]
    mass: 118.710000
    reduced_to: 41
  - symbol: Sn # 42
    coordinates: [  0.500000001889393,  0.000000006935236,  0.250000001110686 ]
    mass: 118.710000
    reduced_to: 41
  - symbol: Sn # 43
    coordinates: [  0.000000001889393,  0.500000006935236,  0.250000001110686 ]
    mass: 118.710000
    reduced_to: 41
  - symbol: Sn # 44
    coordinates: [  0.500000001889393,  0.500000006935236,  0.250000001110686 ]
    mass: 118.710000
    reduced_to: 41
  - symbol: Sn # 45
    coordinates: [  0.000000001889393,  0.000000006935236,  0.750000001110686 ]
    mass: 118.710000
    reduced_to: 41
  - symbol: Sn # 46
    coordinates: [  0.500000001889393,  0.000000006935236,  0.750000001110686 ]
    mass: 118.710000
    reduced_to: 41
  - symbol: Sn # 47
    coordinates: [  0.000000001889393,  0.500000006935236,  0.750000001110686 ]
    mass: 118.710000
    reduced_to: 41
  - symbol: Sn # 48
    coordinates: [  0.500000001889393,  0.500000006935236,  0.750000001110686 ]
    mass: 118.710000
    reduced_to: 41
  - symbol: Sn # 49
    coordinates: [  0.249999998187536,  0.000000004120439,  0.000000001032236 ]
    mass: 118.710000
    reduced_to: 49
  - symbol: Sn # 50
    coordinates: [  0.749999998187536,  0.000000004120439,  0.000000001032236 ]
    mass: 118.710000
    reduced_to: 49
  - symbol: Sn # 51
    coordinates: [  0.249999998187536,  0.500000004120439,  0.000000001032236 ]
    mass: 118.710000
    reduced_to: 49
  - symbol: Sn # 52
    coordinates: [  0.749999998187536,  0.500000004120439,  0.000000001032236 ]
    mass: 118.710000
    reduced_to: 49
  - symbol: Sn # 53
    coordinates: [  0.249999998187536,  0.000000004120439,  0.500000001032236 ]
    mass: 118.710000
    reduced_to: 49
  - symbol: Sn # 54
    coordinates: [  0.749999998187536,  0.000000004120439,  0.500000001032236 ]
    mass: 118.710000
    reduced_to: 49
  - symbol: Sn # 55
    coordinates: [  0.249999998187536,  0.500000004120439,  0.500000001032236 ]
    mass: 118.710000
    reduced_to: 49
  - symbol: Sn # 56
    coordinates: [  0.749999998187536,  0.500000004120439,  0.500000001032236 ]
    mass: 118.710000
    reduced_to: 49
  - symbol: Sn # 57
    coordinates: [  0.499999998942802,  0.250000000397885,  0.000000000217657 ]
    mass: 118.710000
    reduced_to: 57
  - symbol: Sn # 58
    coordinates: [  0.999999998942802,  0.250000000397885,  0.000000000217657 ]
    mass: 118.710000
    reduced_to: 57
  - symbol: Sn # 59
    coordinates: [  0.499999998942802,  0.750000000397885,  0.000000000217657 ]
    mass: 118.710000
    reduced_to: 57
  - symbol: Sn # 60
    coordinates: [  0.999999998942802,  0.750000000397885,  0.000000000217657 ]
    mass: 118.710000
    reduced_to: 57
  - symbol: Sn # 61
    coordinates: [  0.499999998942802,  0.250000000397885,  0.500000000217657 ]
    mass: 118.710000
    reduced_to: 57
  - symbol: Sn # 62
    coordinates: [  0.999999998942802,  0.250000000397885,  0.500000000217657 ]
    mass: 118.710000
    reduced_to: 57
  - symbol: Sn # 63
    coordinates: [  0.499999998942802,  0.750000000397885,  0.500000000217657 ]
    mass: 118.710000
    reduced_to: 57
  - symbol: Sn # 64
    coordinates: [  0.999999998942802,  0.750000000397885,  0.500000000217657 ]
    mass: 118.710000
    reduced_to: 57

displacements:
- atom:    1
  displacement:
    [   0.0100000000000000,  0.0000000000000000,  0.0000000000000000 ]
  forces:
  - [  -0.0238739512860775, -0.0133669525384903, -0.0133676975965500 ]
  - [  -0.0070466697216034, -0.0072099491953850, -0.0072102025151253 ]
  - [  -0.0072587653994560, -0.0072108879685402, -0.0071932524442673 ]
  - [  -0.0071840882301331, -0.0072782859206200, -0.0072137936949730 ]
  - [  -0.0072582066059113, -0.0071929544210434, -0.0072100311517715 ]
  - [  -0.0071833729743958, -0.0072126984596252, -0.0072780698537827 ]
  - [  -0.0072606652975082, -0.0072119012475014, -0.0072131529450417 ]
  - [  -0.0072402581572533, -0.0072164088487625, -0.0072169899940491 ]
  - [  -0.0077349096536636,  0.0068892538547516,  0.0068885833024979 ]
  - [  -0.0071753114461899,  0.0072539299726486,  0.0072531551122665 ]
  - [  -0.0070903077721596,  0.0076944231987000,  0.0068996772170067 ]
  - [  -0.0071470662951469,  0.0072017237544060,  0.0072148069739342 ]
  - [  -0.0070903971791267,  0.0068987384438515,  0.0076947137713432 ]
  - [  -0.0071476846933365,  0.0072148814797401,  0.0072005018591881 ]
  - [  -0.0060028806328773,  0.0082711800932884,  0.0082703903317451 ]
  - [  -0.0071856901049614,  0.0072506740689278,  0.0072506219148636 ]
  - [   0.0108791217207909,  0.0119739472866058, -0.0068973302841187 ]
  - [   0.0070103928446770,  0.0075662434101105, -0.0076905861496925 ]
  - [   0.0069066584110260,  0.0075758695602417, -0.0068997368216515 ]
  - [   0.0065745636820793,  0.0067847892642021, -0.0082702487707138 ]
  - [   0.0071840882301331,  0.0072541609406471, -0.0072527974843979 ]
  - [   0.0072322338819504,  0.0072185322642326, -0.0071997195482254 ]
  - [   0.0071874782443047,  0.0072179436683655, -0.0072140619158745 ]
  - [   0.0072342306375504,  0.0072513893246651, -0.0072500035166740 ]
  - [   0.0108786821365356, -0.0068983659148216,  0.0119739398360252 ]
  - [   0.0070103108882904, -0.0076908096671104,  0.0075653865933418 ]
  - [   0.0071845278143883, -0.0072534978389740,  0.0072546526789665 ]
  - [   0.0072320550680161, -0.0072003826498985,  0.0072180330753326 ]
  - [   0.0069076195359230, -0.0069000497460365,  0.0075756236910820 ]
  - [   0.0065751224756241, -0.0082710087299347,  0.0067845359444618 ]
  - [   0.0071880817413330, -0.0072135627269745,  0.0072186365723610 ]
  - [   0.0072355270385742, -0.0072511658072472,  0.0072521716356277 ]
  - [  -0.0000337111923727,  0.0000056400895119,  0.0000049566151574 ]
  - [   0.0000091356860139,  0.0000199131318368,  0.0000197871122509 ]
  - [   0.0000676626950735,  0.0002006934955716,  0.0005813257303089 ]
  - [   0.0000962414778769, -0.0000582314096391,  0.0001272957306355 ]
  - [   0.0000672412206768,  0.0005831196904182,  0.0002020516549237 ]
  - [   0.0000965407307376,  0.0001291215885431, -0.0000571052805753 ]
  - [   0.0002706087834667,  0.0008828006684780,  0.0008805824327283 ]
  - [  -0.0001330759841949,  0.0001609083265066,  0.0001586227735970 ]
  - [   0.0065967505797744,  0.0085885338485241, -0.0035615265369415 ]
  - [  -0.0012981176842004,  0.0007269989000633, -0.0001492649316788 ]
  - [  -0.0002012799814111,  0.0002642348408699,  0.0000212639570236 ]
  - [  -0.0002140451397281, -0.0001836665906012, -0.0001982711255550 ]
  - [  -0.0001449249393772,  0.0001969002187252, -0.0000166930258274 ]
  - [   0.0001133519836003, -0.0000723803677829, -0.0001902095973492 ]
  - [   0.0000044401649575, -0.0001063905656338,  0.0000360123813152 ]
  - [  -0.0000103430611489,  0.0000448776409030, -0.0000528804957867 ]
  - [  -0.0001633428037167, -0.0060486858710647, -0.0060482742264867 ]
  - [   0.0002753511071205,  0.0000643730163574,  0.0000644689935143 ]
  - [  -0.0000487267971039, -0.0005946068558842,  0.0003670521546155 ]
  - [   0.0001255981624126, -0.0000904835760593,  0.0001059799105860 ]
  - [  -0.0000484362244606,  0.0003668312856462, -0.0005952394567430 ]
  - [   0.0001247264444828,  0.0001054592430592, -0.0000911494717002 ]
  - [   0.0000679418444633,  0.0000615406097495,  0.0000610053539276 ]
  - [  -0.0000061504542828, -0.0000683963298798, -0.0000685122795403 ]
  - [  -0.0012984056957066, -0.0001497082412243,  0.0007275387179106 ]
  - [   0.0065973624587059, -0.0035614548251033,  0.0085886865854263 ]
  - [   0.0001137607978308, -0.0001942329108715, -0.0000729442108423 ]
  - [  -0.0001453310251236, -0.0000206609256566,  0.0001967211719602 ]
  - [  -0.0002138263371307, -0.0001962445676327, -0.0001828325912356 ]
  - [  -0.0002015810459852,  0.0000235955230892,  0.0002644881606102 ]
  - [  -0.0000114799977382, -0.0000541619956493,  0.0000456580892205 ]
  - [   0.0000056326389313,  0.0000348039902747, -0.0001061717048287 ]
- atom:    1
  displacement:
    [  -0.0100000000000000,  0.0000000000000000,  0.0000000000000000 ]
  forces:
  - [   0.0096669271588326, -0.0009890273213387, -0.0009903386235237 ]
  - [  -0.0074011608958244, -0.0072357580065727, -0.0072360485792160 ]
  - [  -0.0071894824504852, -0.0072368308901787, -0.0072547867894173 ]
  - [  -0.0072627216577530, -0.0071699917316437, -0.0072361379861832 ]
  - [  -0.0071889609098434, -0.0072544515132904, -0.0072357282042503 ]
  - [  -0.0072618871927261, -0.0072349533438683, -0.0071697309613228 ]
  - [  -0.0071871504187584, -0.0072341561317444, -0.0072353482246399 ]
  - [  -0.0072040557861328, -0.0072289928793907, -0.0072298049926758 ]
  - [  -0.0067057088017464,  0.0075314566493034,  0.0075307190418243 ]
  - [  -0.0072734057903290,  0.0071956664323807,  0.0071947351098061 ]
  - [  -0.0073702111840248,  0.0067563205957413,  0.0075486898422241 ]
  - [  -0.0072992146015167,  0.0072486400604248,  0.0072335302829742 ]
  - [  -0.0073702484369278,  0.0075477436184883,  0.0067565441131592 ]
  - [  -0.0072999075055122,  0.0072337090969086,  0.0072471350431442 ]
  - [  -0.0084406584501266,  0.0061820074915886,  0.0061812251806259 ]
  - [  -0.0072585493326187,  0.0071958303451538,  0.0071959197521210 ]
  - [   0.0035725682973862,  0.0025288537144661, -0.0075395926833153 ]
  - [   0.0074504315853119,  0.0068701133131981, -0.0067525133490562 ]
  - [   0.0075359866023064,  0.0068801790475845, -0.0075490474700928 ]
  - [   0.0078669711947441,  0.0076522752642632, -0.0061815828084946 ]
  - [   0.0072631388902664,  0.0071933120489120, -0.0071943253278732 ]
  - [   0.0072164162993431,  0.0072307437658310, -0.0072465017437935 ]
  - [   0.0072592496871948,  0.0072301477193832, -0.0072328001260757 ]
  - [   0.0072098597884178,  0.0071948617696762, -0.0071951150894165 ]
  - [   0.0035721734166145, -0.0075402632355690,  0.0025287345051765 ]
  - [   0.0074503198266029, -0.0067527592182159,  0.0068692713975906 ]
  - [   0.0072636306285858, -0.0071952193975449,  0.0071939677000046 ]
  - [   0.0072163790464401, -0.0072472840547562,  0.0072305873036385 ]
  - [   0.0075369328260422, -0.0075491592288017,  0.0068796947598457 ]
  - [   0.0078676566481590, -0.0061821416020393,  0.0076520219445229 ]
  - [   0.0072597861289978, -0.0072323754429817,  0.0072306171059608 ]
  - [   0.0072111114859581, -0.0071963071823120,  0.0071956142783165 ]
  - [   0.0000332851232088, -0.0000053122639656, -0.0000059011508711 ]
  - [  -0.0000095219074865, -0.0000210498110391, -0.0000212872400880 ]
  - [  -0.0000692901521688, -0.0002072313800454, -0.0005858964286745 ]
  - [  -0.0000955951400101,  0.0000543706119061, -0.0001256871037185 ]
  - [  -0.0000698411822668, -0.0005841627717018, -0.0002063467109110 ]
  - [  -0.0000955229188548, -0.0001241090358235,  0.0000553006975679 ]
  - [  -0.0002889234165195, -0.0008939770050347, -0.0008961510029621 ]
  - [   0.0001367339864373, -0.0001534544862807, -0.0001555500348331 ]
  - [  -0.0066664488986135, -0.0087693259119987,  0.0036755166947842 ]
  - [   0.0012727056164294, -0.0007148713921197,  0.0001422241330147 ]
  - [   0.0001982150424737, -0.0002664513885975, -0.0000224411487579 ]
  - [   0.0002135240938514,  0.0001832204870880,  0.0001982189714909 ]
  - [   0.0001451992575312, -0.0001951791346073,  0.0000207610428333 ]
  - [  -0.0001146497379523,  0.0000703266487108,  0.0001888312399387 ]
  - [  -0.0000054597571761,  0.0001038126647472, -0.0000343620777130 ]
  - [   0.0000091760557552, -0.0000453060492873,  0.0000543743371964 ]
  - [   0.0001135170459747,  0.0060084061697125,  0.0060093207284808 ]
  - [  -0.0002633146941662, -0.0000662654638290, -0.0000660838049953 ]
  - [   0.0000528618693352,  0.0005935856606811, -0.0003672658931464 ]
  - [  -0.0001231655478477,  0.0000926330685616, -0.0001075835316442 ]
  - [   0.0000529624521732, -0.0003677130735014,  0.0005930387414992 ]
  - [  -0.0001242272555828, -0.0001083128154278,  0.0000918474979699 ]
  - [  -0.0000703372061253, -0.0000598693950451, -0.0000606933608651 ]
  - [   0.0000090040266514,  0.0000681132078171,  0.0000679199583828 ]
  - [   0.0012724767439067,  0.0001420006155968, -0.0007143162656575 ]
  - [  -0.0066656749695539,  0.0036753728054464, -0.0087688332423568 ]
  - [  -0.0001139326777775,  0.0001852214336395,  0.0000698200892657 ]
  - [   0.0001448858529329,  0.0000171428546309, -0.0001954121980816 ]
  - [   0.0002135049726348,  0.0001998804509640,  0.0001838793978095 ]
  - [   0.0001977346837521, -0.0000202371738851, -0.0002662679180503 ]
  - [   0.0000083320246631,  0.0000526383519173, -0.0000445544719696 ]
  - [  -0.0000043399631977, -0.0000361884012818,  0.0001038778573275 ]
- atom:   33
  displacement:
    [   0.0100000000000000,  0.0000000000000000,  0.0000000000000000 ]
  forces:
  - [  -0.0072573274374008, -0.0072795450687408, -0.0072799623012543 ]
  - [  -0.0072153061628342, -0.0072030797600746, -0.0072032585740089 ]
  - [  -0.0071535110473633, -0.0070178732275963, -0.0070678219199181 ]
  - [  -0.0071277543902397, -0.0072179064154625, -0.0070995092391968 ]
  - [  -0.0071529373526573, -0.0070675536990166, -0.0070171654224396 ]
  - [  -0.0071271061897278, -0.0070986226201057, -0.0072176232933998 ]
  - [  -0.0069369971752167, -0.0063312426209450, -0.0063323155045509 ]
  - [  -0.0073548033833504, -0.0066425949335098, -0.0066433921456337 ]
  - [  -0.0069366991519928,  0.0063327029347420,  0.0063319876790047 ]
  - [  -0.0073577389121056,  0.0066448226571083,  0.0066438913345337 ]
  - [  -0.0071535035967827,  0.0070678964257240,  0.0070187672972679 ]
  - [  -0.0071273669600487,  0.0071002244949341,  0.0072182342410088 ]
  - [  -0.0071536749601364,  0.0070177391171455,  0.0070682242512703 ]
  - [  -0.0071281790733337,  0.0072183236479759,  0.0070989727973938 ]
  - [  -0.0072561278939247,  0.0072801634669304,  0.0072794184088707 ]
  - [  -0.0072126761078835,  0.0072026252746582,  0.0072027221322060 ]
  - [   0.0073204189538956,  0.0072299242019653, -0.0073514282703400 ]
  - [   0.0072916299104691,  0.0074270591139793, -0.0073823854327202 ]
  - [   0.0072328969836235,  0.0072450637817383, -0.0072445049881935 ]
  - [   0.0071900263428688,  0.0071677267551422, -0.0071667581796646 ]
  - [   0.0070872083306313,  0.0078107044100761, -0.0078103393316269 ]
  - [   0.0074964091181755,  0.0081095024943352, -0.0081078782677650 ]
  - [   0.0073197782039642,  0.0073519349098206, -0.0072283595800400 ]
  - [   0.0072882920503616,  0.0073814541101456, -0.0074247717857361 ]
  - [   0.0073198527097702, -0.0073521956801414,  0.0072298347949982 ]
  - [   0.0072912797331810, -0.0073823630809784,  0.0074262544512749 ]
  - [   0.0070876926183701, -0.0078108236193657,  0.0078111588954926 ]
  - [   0.0074961334466934, -0.0081086978316307,  0.0081091150641441 ]
  - [   0.0072338357567787, -0.0072445496916771,  0.0072445720434189 ]
  - [   0.0071907564997673, -0.0071675330400467,  0.0071673840284348 ]
  - [   0.0073203146457672, -0.0072279796004295,  0.0073525682091713 ]
  - [   0.0072895437479019, -0.0074260532855988,  0.0073821023106575 ]
  - [  -0.0271519273519516, -0.0000000931322575,  0.0000000300933607 ]
  - [  -0.0046424241736531, -0.0000000662985258, -0.0000005008187145 ]
  - [  -0.0002524641458876, -0.0000010100193322, -0.0000007608905435 ]
  - [  -0.0000224108807743, -0.0000012530945241, -0.0000005585607141 ]
  - [  -0.0002528867335059,  0.0000011101365089,  0.0000002578159126 ]
  - [  -0.0000223705428652,  0.0000013500102796, -0.0000000226576873 ]
  - [  -0.0000042929041228,  0.0000016489066184, -0.0000006948397981 ]
  - [  -0.0000082189217210,  0.0000014980323613, -0.0000006573540077 ]
  - [   0.0000077822569438,  0.0000707171857357,  0.0000014342367649 ]
  - [   0.0000038400467020,  0.0000207188204513, -0.0000005029141903 ]
  - [  -0.0007735472754575, -0.0012455321848392,  0.0000383481383324 ]
  - [   0.0002879004459828, -0.0000936142168939,  0.0000051967799664 ]
  - [   0.0000087646931206, -0.0000704005360603,  0.0000004731118679 ]
  - [   0.0000021106320673, -0.0000211217738979,  0.0000012852251530 ]
  - [  -0.0007733678794466,  0.0012431144714355, -0.0000399127602577 ]
  - [   0.0002879460516851,  0.0000906712375581, -0.0000040642917156 ]
  - [   0.0000069588422775, -0.0000006807302952,  0.0000000179221615 ]
  - [   0.0000097826123238, -0.0000004172325134, -0.0000000865620393 ]
  - [  -0.0000047460198402, -0.0000006242416930, -0.0000001646170631 ]
  - [  -0.0000040493905544, -0.0000000298023224, -0.0000003957611341 ]
  - [  -0.0000047907233238, -0.0000004702218916, -0.0000013904646039 ]
  - [  -0.0000048875808716, -0.0000011026859283, -0.0000005732290447 ]
  - [   0.0164577215909958, -0.0000000426447286, -0.0000004339963198 ]
  - [   0.0159933567047119,  0.0000001974403858, -0.0000001965090632 ]
  - [   0.0000036279225242, -0.0000007562339306,  0.0000211305523408 ]
  - [   0.0000080503523350,  0.0000018053688109,  0.0000707607250661 ]
  - [   0.0000026465636438, -0.0000028312206268, -0.0000217251872527 ]
  - [   0.0000085495412350, -0.0000036181882024, -0.0000707323197275 ]
  - [   0.0002878990198951,  0.0000070445239544, -0.0000927401706576 ]
  - [  -0.0007737539708614,  0.0000408482737839, -0.0012453496456146 ]
  - [   0.0002870414755307, -0.0000055618584156,  0.0000915173441172 ]
  - [  -0.0007722526788712, -0.0000407057814300,  0.0012434469535947 ]
- atom:   41
  displacement:
    [   0.0070710681474055,  0.0000000005384350,  0.0070710674763254 ]
  forces:
  - [  -0.0051560997962952, -0.0036809369921684, -0.0115859434008598 ]
  - [  -0.0082263723015785, -0.0070268213748932, -0.0076804459095001 ]
  - [  -0.0073502212762833, -0.0068181008100510, -0.0070009306073189 ]
  - [  -0.0075153559446335, -0.0074948966503143, -0.0071333274245262 ]
  - [  -0.0073392242193222, -0.0070994049310684, -0.0069876387715340 ]
  - [  -0.0072764903306961, -0.0072722807526588, -0.0072016268968582 ]
  - [  -0.0071959421038628, -0.0074078142642975, -0.0070611983537674 ]
  - [  -0.0072667673230171, -0.0072285160422325, -0.0072777196764946 ]
  - [  -0.0073809847235680,  0.0066105723381042,  0.0069293677806854 ]
  - [  -0.0072364211082458,  0.0072154626250267,  0.0072308778762817 ]
  - [   0.0000941082835197, -0.0015851557254791,  0.0114204213023186 ]
  - [  -0.0080273672938347,  0.0070539712905884,  0.0076067522168159 ]
  - [  -0.0072465389966965,  0.0071393400430679,  0.0072379037737846 ]
  - [  -0.0071934834122658,  0.0071551576256752,  0.0072666704654694 ]
  - [  -0.0073124393820763,  0.0070719048380852,  0.0073689222335815 ]
  - [  -0.0070063322782516,  0.0073249563574791,  0.0073780342936516 ]
  - [   0.0072137638926506,  0.0072367787361145, -0.0072183758020401 ]
  - [   0.0070695355534554,  0.0078362002968788, -0.0075204744935036 ]
  - [   0.0064157322049141,  0.0073974952101707, -0.0068381428718567 ]
  - [   0.0144013762474060,  0.0158073753118515, -0.0030890181660652 ]
  - [   0.0072549507021904,  0.0072938725352287, -0.0071802809834480 ]
  - [   0.0072033554315567,  0.0073075443506241, -0.0072120130062103 ]
  - [   0.0074371472001076,  0.0071268975734711, -0.0070727691054344 ]
  - [   0.0071332976222038,  0.0073745027184486, -0.0070795565843582 ]
  - [   0.0062015056610107, -0.0074333176016808,  0.0067693963646889 ]
  - [   0.0094183161854744, -0.0108368098735809,  0.0028658136725426 ]
  - [   0.0069337040185928, -0.0069550126791000,  0.0073167756199837 ]
  - [   0.0070986747741699, -0.0076312199234962,  0.0074484273791313 ]
  - [   0.0071707591414452, -0.0071743875741959,  0.0072481259703636 ]
  - [   0.0071077570319176, -0.0073508620262146,  0.0074623525142670 ]
  - [   0.0071791857481003, -0.0072172358632088,  0.0071719065308571 ]
  - [   0.0072528347373009, -0.0070392861962318,  0.0073878318071365 ]
  - [   0.0000056689368648, -0.0000651217997074, -0.0000046153727453 ]
  - [   0.0000023823770334,  0.0000149928964674,  0.0000044081825763 ]
  - [  -0.0005840272642672, -0.0008958205580711,  0.0115728415548801 ]
  - [   0.0002021086402237,  0.0000489507801831, -0.0000046142376959 ]
  - [   0.0000046909617595,  0.0000662431120872, -0.0000043085165089 ]
  - [   0.0000018294674646, -0.0000138722825795,  0.0000047866919886 ]
  - [  -0.0005135871469975,  0.0008669355884194,  0.0113679338246584 ]
  - [   0.0002048383466899, -0.0000485372729599, -0.0000046145423767 ]
  - [  -0.0117644313722849,  0.0003424249589443, -0.0151127129793167 ]
  - [   0.0010915866587311, -0.0000019388576220, -0.0002636052668095 ]
  - [  -0.0003453285899013, -0.0000014230608940, -0.0002634748816490 ]
  - [  -0.0000860935324454, -0.0000012475065887,  0.0000056698918343 ]
  - [  -0.0002476731315255,  0.0000005140900612, -0.0001415126025677 ]
  - [   0.0002452789340168,  0.0000001570854806,  0.0002002120018005 ]
  - [   0.0000475590422866, -0.0000012814998627,  0.0001992546021938 ]
  - [  -0.0000420606520493, -0.0000011981464922, -0.0000036433339119 ]