# Thermal properties / unit cell (natom)

unit:
  temperature:   K
  free_energy:   kJ/mol
  entropy:       J/K/mol
  heat_capacity: J/K/mol

natom: 8    
cutoff_frequency: 0.00000
num_modes: 139968
num_integrated_modes: 95220

zero_point_energy:      24.3565682

thermal_properties:
- temperature:         0.0000000
  free_energy:        24.3565682
  entropy:             0.0000000
  heat_capacity:       0.0000000
  energy:             24.3565682

- temperature:        10.0000000
  free_energy:        24.3532368
  entropy:             0.9469296
  heat_capacity:       1.8040054
  energy:             24.3627061

- temperature:        20.0000000
  free_energy:        24.3326153
  entropy:             3.3430344
  heat_capacity:       5.6150813
  energy:             24.3994760

- temperature:        30.0000000
  free_energy:        24.2844103
  entropy:             6.3629059
  heat_capacity:       9.6205925
  energy:             24.4752975

- temperature:        40.0000000
  free_energy:        24.2041142
  entropy:             9.7626241
  heat_capacity:      14.4193225
  energy:             24.5946192

- temperature:        50.0000000
  free_energy:        24.0877206
  entropy:            13.5919006
  heat_capacity:      20.2931066
  energy:             24.7673157

- temperature:        60.0000000
  free_energy:        23.9307420
  entropy:            17.8795105
  heat_capacity:      27.0715152
  energy:             25.0035126

- temperature:        70.0000000
  free_energy:        23.7286849
  entropy:            22.5995820
  heat_capacity:      34.4224051
  energy:             25.3106556

- temperature:        80.0000000
  free_energy:        23.4775150
  entropy:            27.6897024
  heat_capacity:      41.9943292
  energy:             25.6926912

- temperature:        90.0000000
  free_energy:        23.1739216
  entropy:            33.0705327
  heat_capacity:      49.4872314
  energy:             26.1502695

- temperature:       100.0000000
  free_energy:        22.8154090
  entropy:            38.6602052
  heat_capacity:      56.6809623
  energy:             26.6814295

- temperature:       110.0000000
  free_energy:        22.4002745
  entropy:            44.3831201
  heat_capacity:      63.4356090
  energy:             27.2824177

- temperature:       120.0000000
  free_energy:        21.9275206
  entropy:            50.1742222
  heat_capacity:      69.6775395
  energy:             27.9484273

- temperature:       130.0000000
  free_energy:        21.3967417
  entropy:            55.9802328
  heat_capacity:      75.3815427
  energy:             28.6741719

- temperature:       140.0000000
  free_energy:        20.8080075
  entropy:            61.7591334
  heat_capacity:      80.5545734
  energy:             29.4542861

- temperature:       150.0000000
  free_energy:        20.1617573
  entropy:            67.4788211
  heat_capacity:      85.2230587
  energy:             30.2835804

- temperature:       160.0000000
  free_energy:        19.4587085
  entropy:            73.1154963
  heat_capacity:      89.4238594
  energy:             31.1571879

- temperature:       170.0000000
  free_energy:        18.6997816
  entropy:            78.6520861
  heat_capacity:      93.1982479
  energy:             32.0706362

- temperature:       180.0000000
  free_energy:        17.8860400
  entropy:            84.0768408
  heat_capacity:      96.5881278
  energy:             33.0198714

- temperature:       190.0000000
  free_energy:        17.0186433
  entropy:            89.3821500
  heat_capacity:      99.6338071
  energy:             34.0012517

- temperature:       200.0000000
  free_energy:        16.0988102
  entropy:            94.5635769
  heat_capacity:     102.3728044
  energy:             35.0115256

- temperature:       210.0000000
  free_energy:        15.1277916
  entropy:            99.6190871
  heat_capacity:     104.8393096
  energy:             36.0477999

- temperature:       220.0000000
  free_energy:        14.1068491
  entropy:           104.5484415
  heat_capacity:     107.0640470
  energy:             37.1075063

- temperature:       230.0000000
  free_energy:        13.0372398
  entropy:           109.3527247
  heat_capacity:     109.0743709
  energy:             38.1883665

- temperature:       240.0000000
  free_energy:        11.9202048
  entropy:           114.0339799
  heat_capacity:     110.8944859
  energy:             39.2883600

- temperature:       250.0000000
  free_energy:        10.7569613
  entropy:           118.5949292
  heat_capacity:     112.5457263
  energy:             40.4056936

- temperature:       260.0000000
  free_energy:         9.5486967
  entropy:           123.0387605
  heat_capacity:     114.0468530
  energy:             41.5387744

- temperature:       270.0000000
  free_energy:         8.2965649
  entropy:           127.3689651
  heat_capacity:     115.4143447
  energy:             42.6861854

- temperature:       280.0000000
  free_energy:         7.0016839
  entropy:           131.5892156
  heat_capacity:     116.6626709
  energy:             43.8466643

- temperature:       290.0000000
  free_energy:         5.6651345
  entropy:           135.7032746
  heat_capacity:     117.8045411
  energy:             45.0190842

- temperature:       300.0000000
  free_energy:         4.2879597
  entropy:           139.7149262
  heat_capacity:     118.8511276
  energy:             46.2024376

- temperature:       310.0000000
  free_energy:         2.8711648
  entropy:           143.6279264
  heat_capacity:     119.8122625
  energy:             47.3958220

- temperature:       320.0000000
  free_energy:         1.4157177
  entropy:           147.4459665
  heat_capacity:     120.6966107
  energy:             48.5984270

- temperature:       330.0000000
  free_energy:        -0.0774500
  entropy:           151.1726480
  heat_capacity:     121.5118199
  energy:             49.8095238

- temperature:       340.0000000
  free_energy:        -1.6074423
  entropy:           154.8114645
  heat_capacity:     122.2646525
  energy:             51.0284556

- temperature:       350.0000000
  free_energy:        -3.1733977
  entropy:           158.3657905
  heat_capacity:     122.9610977
  energy:             52.2546290

- temperature:       360.0000000
  free_energy:        -4.7744874
  entropy:           161.8388742
  heat_capacity:     123.6064708
  energy:             53.4875074

- temperature:       370.0000000
  free_energy:        -6.4099147
  entropy:           165.2338344
  heat_capacity:     124.2054972
  energy:             54.7266040

- temperature:       380.0000000
  free_energy:        -8.0789136
  entropy:           168.5536593
  heat_capacity:     124.7623867
  energy:             55.9714769

- temperature:       390.0000000
  free_energy:        -9.7807470
  entropy:           171.8012073
  heat_capacity:     125.2808961
  energy:             57.2217238

- temperature:       400.0000000
  free_energy:       -11.5147060
  entropy:           174.9792102
  heat_capacity:     125.7643849
  energy:             58.4769781

- temperature:       410.0000000
  free_energy:       -13.2801081
  entropy:           178.0902756
  heat_capacity:     126.2158630
  energy:             59.7369049

- temperature:       420.0000000
  free_energy:       -15.0762967
  entropy:           181.1368914
  heat_capacity:     126.6380318
  energy:             61.0011977

- temperature:       430.0000000
  free_energy:       -16.9026390
  entropy:           184.1214301
  heat_capacity:     127.0333207
  energy:             62.2695759

- temperature:       440.0000000
  free_energy:       -18.7585259
  entropy:           187.0461539
  heat_capacity:     127.4039181
  energy:             63.5417818

- temperature:       450.0000000
  free_energy:       -20.6433699
  entropy:           189.9132189
  heat_capacity:     127.7517990
  energy:             64.8175786

- temperature:       460.0000000
  free_energy:       -22.5566049
  entropy:           192.7246804
  heat_capacity:     128.0787486
  energy:             66.0967481

- temperature:       470.0000000
  free_energy:       -24.4976847
  entropy:           195.4824977
  heat_capacity:     128.3863839
  energy:             67.3790892

- temperature:       480.0000000
  free_energy:       -26.4660823
  entropy:           198.1885387
  heat_capacity:     128.6761712
  energy:             68.6644163

- temperature:       490.0000000
  free_energy:       -28.4612889
  entropy:           200.8445846
  heat_capacity:     128.9494430
  energy:             69.9525576

- temperature:       500.0000000
  free_energy:       -30.4828130
  entropy:           203.4523343
  heat_capacity:     129.2074116
  energy:             71.2433541

- temperature:       510.0000000
  free_energy:       -32.5301800
  entropy:           206.0134088
  heat_capacity:     129.4511819
  energy:             72.5366585

- temperature:       520.0000000
  free_energy:       -34.6029308
  entropy:           208.5293550
  heat_capacity:     129.6817625
  energy:             73.8323338

- temperature:       530.0000000
  free_energy:       -36.7006216
  entropy:           211.0016499
  heat_capacity:     129.9000751
  energy:             75.1302529

- temperature:       540.0000000
  free_energy:       -38.8228230
  entropy:           213.4317041
  heat_capacity:     130.1069636
  energy:             76.4302972

- temperature:       550.0000000
  free_energy:       -40.9691194
  entropy:           215.8208655
  heat_capacity:     130.3032014
  energy:             77.7323566

- temperature:       560.0000000
  free_energy:       -43.1391083
  entropy:           218.1704222
  heat_capacity:     130.4894983
  energy:             79.0363281

- temperature:       570.0000000
  free_energy:       -45.3323999
  entropy:           220.4816062
  heat_capacity:     130.6665070
  energy:             80.3421157

- temperature:       580.0000000
  free_energy:       -47.5486164
  entropy:           222.7555961
  heat_capacity:     130.8348279
  energy:             81.6496293

- temperature:       590.0000000
  free_energy:       -49.7873916
  entropy:           224.9935198
  heat_capacity:     130.9950141
  energy:             82.9587851

- temperature:       600.0000000
  free_energy:       -52.0483702
  entropy:           227.1964574
  heat_capacity:     131.1475762
  energy:             84.2695042

- temperature:       610.0000000
  free_energy:       -54.3312076
  entropy:           229.3654432
  heat_capacity:     131.2929855
  energy:             85.5817128

- temperature:       620.0000000
  free_energy:       -56.6355692
  entropy:           231.5014689
  heat_capacity:     131.4316779
  energy:             86.8953415

- temperature:       630.0000000
  free_energy:       -58.9611303
  entropy:           233.6054850
  heat_capacity:     131.5640570
  energy:             88.2103253

- temperature:       640.0000000
  free_energy:       -61.3075753
  entropy:           235.6784033
  heat_capacity:     131.6904967
  energy:             89.5266029

- temperature:       650.0000000
  free_energy:       -63.6745976
  entropy:           237.7210988
  heat_capacity:     131.8113439
  energy:             90.8441166

- temperature:       660.0000000
  free_energy:       -66.0618993
  entropy:           239.7344113
  heat_capacity:     131.9269209
  energy:             92.1628122

- temperature:       670.0000000
  free_energy:       -68.4691906
  entropy:           241.7191478
  heat_capacity:     132.0375271
  energy:             93.4826385

- temperature:       680.0000000
  free_energy:       -70.8961896
  entropy:           243.6760833
  heat_capacity:     132.1434414
  energy:             94.8035471

- temperature:       690.0000000
  free_energy:       -73.3426221
  entropy:           245.6059631
  heat_capacity:     132.2449232
  energy:             96.1254925

- temperature:       700.0000000
  free_energy:       -75.8082210
  entropy:           247.5095038
  heat_capacity:     132.3422147
  energy:             97.4484316

- temperature:       710.0000000
  free_energy:       -78.2927266
  entropy:           249.3873947
  heat_capacity:     132.4355416
  energy:             98.7723236

- temperature:       720.0000000
  free_energy:       -80.7958857
  entropy:           251.2402994
  heat_capacity:     132.5251151
  energy:            100.0971299

- temperature:       730.0000000
  free_energy:       -83.3174515
  entropy:           253.0688569
  heat_capacity:     132.6111323
  energy:            101.4228140

- temperature:       740.0000000
  free_energy:       -85.8571837
  entropy:           254.8736825
  heat_capacity:     132.6937777
  energy:            102.7493413

- temperature:       750.0000000
  free_energy:       -88.4148480
  entropy:           256.6553692
  heat_capacity:     132.7732242
  energy:            104.0766789

- temperature:       760.0000000
  free_energy:       -90.9902159
  entropy:           258.4144889
  heat_capacity:     132.8496336
  energy:            105.4047957

- temperature:       770.0000000
  free_energy:       -93.5830644
  entropy:           260.1515927
  heat_capacity:     132.9231578
  energy:            106.7336620

- temperature:       780.0000000
  free_energy:       -96.1931761
  entropy:           261.8672126
  heat_capacity:     132.9939395
  energy:            108.0632497

- temperature:       790.0000000
  free_energy:       -98.8203387
  entropy:           263.5618618
  heat_capacity:     133.0621125
  energy:            109.3935321

- temperature:       800.0000000
  free_energy:      -101.4643451
  entropy:           265.2360359
  heat_capacity:     133.1278028
  energy:            110.7244837

- temperature:       810.0000000
  free_energy:      -104.1249928
  entropy:           266.8902136
  heat_capacity:     133.1911287
  energy:            112.0560803

- temperature:       820.0000000
  free_energy:      -106.8020842
  entropy:           268.5248573
  heat_capacity:     133.2522018
  energy:            113.3882987

- temperature:       830.0000000
  free_energy:      -109.4954263
  entropy:           270.1404138
  heat_capacity:     133.3111271
  energy:            114.7211171

- temperature:       840.0000000
  free_energy:      -112.2048303
  entropy:           271.7373152
  heat_capacity:     133.3680036
  energy:            116.0545145

- temperature:       850.0000000
  free_energy:      -114.9301118
  entropy:           273.3159794
  heat_capacity:     133.4229248
  energy:            117.3884707

- temperature:       860.0000000
  free_energy:      -117.6710905
  entropy:           274.8768107
  heat_capacity:     133.4759787
  energy:            118.7229667

- temperature:       870.0000000
  free_energy:      -120.4275899
  entropy:           276.4202003
  heat_capacity:     133.5272488
  energy:            120.0579843

- temperature:       880.0000000
  free_energy:      -123.1994376
  entropy:           277.9465269
  heat_capacity:     133.5768136
  energy:            121.3935060

- temperature:       890.0000000
  free_energy:      -125.9864648
  entropy:           279.4561573
  heat_capacity:     133.6247476
  energy:            122.7295152

- temperature:       900.0000000
  free_energy:      -128.7885063
  entropy:           280.9494467
  heat_capacity:     133.6711214
  energy:            124.0659958

- temperature:       910.0000000
  free_energy:      -131.6054004
  entropy:           282.4267396
  heat_capacity:     133.7160014
  energy:            125.4029326

- temperature:       920.0000000
  free_energy:      -134.4369889
  entropy:           283.8883695
  heat_capacity:     133.7594511
  energy:            126.7403110

- temperature:       930.0000000
  free_energy:      -137.2831167
  entropy:           285.3346599
  heat_capacity:     133.8015302
  energy:            128.0781171

- temperature:       940.0000000
  free_energy:      -140.1436320
  entropy:           286.7659247
  heat_capacity:     133.8422955
  energy:            129.4163373

- temperature:       950.0000000
  free_energy:      -143.0183861
  entropy:           288.1824683
  heat_capacity:     133.8818010
  energy:            130.7549588

- temperature:       960.0000000
  free_energy:      -145.9072333
  entropy:           289.5845860
  heat_capacity:     133.9200978
  energy:            132.0939692

- temperature:       970.0000000
  free_energy:      -148.8100307
  entropy:           290.9725645
  heat_capacity:     133.9572345
  energy:            133.4333569

- temperature:       980.0000000
  free_energy:      -151.7266384
  entropy:           292.3466822
  heat_capacity:     133.9932574
  energy:            134.7731102

- temperature:       990.0000000
  free_energy:      -154.6569190
  entropy:           293.7072096
  heat_capacity:     134.0282104
  energy:            136.1132184

- temperature:      1000.0000000
  free_energy:      -157.6007381
  entropy:           295.0544091
  heat_capacity:     134.0621352
  energy:            137.4536710
