# Thermal properties / unit cell (natom)

unit:
  temperature:   K
  free_energy:   kJ/mol
  entropy:       J/K/mol
  heat_capacity: J/K/mol

natom: 12   
cutoff_frequency: 0.00000
num_modes: 186624
num_integrated_modes: 186622

zero_point_energy:      47.8396549

thermal_properties:
- temperature:         0.0000000
  free_energy:        47.8396549
  entropy:             0.0000000
  heat_capacity:       0.0000000
  energy:             47.8396549

- temperature:        10.0000000
  free_energy:        47.8374856
  entropy:             0.7631858
  heat_capacity:       2.1608769
  energy:             47.8451174

- temperature:        20.0000000
  free_energy:        47.8100946
  entropy:             5.6645011
  heat_capacity:      15.3689671
  energy:             47.9233846

- temperature:        30.0000000
  free_energy:        47.7082150
  entropy:            15.2648387
  heat_capacity:      33.1055708
  energy:             48.1661602

- temperature:        40.0000000
  free_energy:        47.4975600
  entropy:            27.0994927
  heat_capacity:      49.8256831
  energy:             48.5815397

- temperature:        50.0000000
  free_energy:        47.1628297
  entropy:            39.9768561
  heat_capacity:      66.2193990
  energy:             49.1616725

- temperature:        60.0000000
  free_energy:        46.6958358
  entropy:            53.5156832
  heat_capacity:      82.8443817
  energy:             49.9067768

- temperature:        70.0000000
  free_energy:        46.0908862
  entropy:            67.5440706
  heat_capacity:      99.5844771
  energy:             50.8189711

- temperature:        80.0000000
  free_energy:        45.3437887
  entropy:            81.9221271
  heat_capacity:     116.0526809
  energy:             51.8975589

- temperature:        90.0000000
  free_energy:        44.4517394
  entropy:            96.5116726
  heat_capacity:     131.8541478
  energy:             53.1377900

- temperature:       100.0000000
  free_energy:        43.4132899
  entropy:           111.1813562
  heat_capacity:     146.6949286
  energy:             54.5314255

- temperature:       110.0000000
  free_energy:        42.2282342
  entropy:           125.8151568
  heat_capacity:     160.4030890
  energy:             56.0679015

- temperature:       120.0000000
  free_energy:        40.8974287
  entropy:           140.3170763
  heat_capacity:     172.9109171
  energy:             57.7354779

- temperature:       130.0000000
  free_energy:        39.4225850
  entropy:           154.6119509
  heat_capacity:     184.2259608
  energy:             59.5221386

- temperature:       140.0000000
  free_energy:        37.8060682
  entropy:           168.6438228
  heat_capacity:     194.4037622
  energy:             61.4162034

- temperature:       150.0000000
  free_energy:        36.0507184
  entropy:           182.3731853
  heat_capacity:     203.5266388
  energy:             63.4066962

- temperature:       160.0000000
  free_energy:        34.1597010
  entropy:           195.7739549
  heat_capacity:     211.6888559
  energy:             65.4835338

- temperature:       170.0000000
  free_energy:        32.1363872
  entropy:           208.8306263
  heat_capacity:     218.9870569
  energy:             67.6375936

- temperature:       180.0000000
  free_energy:        29.9842607
  entropy:           221.5358101
  heat_capacity:     225.5145397
  energy:             69.8607066

- temperature:       190.0000000
  free_energy:        27.7068474
  entropy:           233.8882017
  heat_capacity:     231.3581525
  energy:             72.1456058

- temperature:       200.0000000
  free_energy:        25.3076625
  entropy:           245.8909587
  heat_capacity:     236.5968778
  energy:             74.4858543

- temperature:       210.0000000
  free_energy:        22.7901728
  entropy:           257.5504330
  heat_capacity:     241.3014531
  energy:             76.8757637

- temperature:       220.0000000
  free_energy:        20.1577697
  entropy:           268.8751953
  heat_capacity:     245.5345929
  energy:             79.3103127

- temperature:       230.0000000
  free_energy:        17.4137512
  entropy:           279.8752948
  heat_capacity:     249.3515301
  energy:             81.7850690

- temperature:       240.0000000
  free_energy:        14.5613095
  entropy:           290.5617024
  heat_capacity:     252.8007057
  energy:             84.2961181

- temperature:       250.0000000
  free_energy:        11.6035245
  entropy:           300.9458982
  heat_capacity:     255.9244989
  energy:             86.8399991

- temperature:       260.0000000
  free_energy:         8.5433600
  entropy:           311.0395671
  heat_capacity:     258.7599420
  energy:             89.4136474

- temperature:       270.0000000
  free_energy:         5.3836627
  entropy:           320.8543791
  heat_capacity:     261.3393860
  energy:             92.0143450

- temperature:       280.0000000
  free_energy:         2.1271636
  entropy:           330.4018318
  heat_capacity:     263.6911034
  energy:             94.6396765

- temperature:       290.0000000
  free_energy:        -1.2235202
  entropy:           339.6931413
  heat_capacity:     265.8398252
  energy:             97.2874908

- temperature:       300.0000000
  free_energy:        -4.6658817
  entropy:           348.7391683
  heat_capacity:     267.8072118
  energy:             99.9558688

- temperature:       310.0000000
  free_energy:        -8.1975208
  entropy:           357.5503710
  heat_capacity:     269.6122633
  energy:            102.6430942

- temperature:       320.0000000
  free_energy:       -11.8161398
  entropy:           366.1367771
  heat_capacity:     271.2716753
  energy:            105.3476288

- temperature:       330.0000000
  free_energy:       -15.5195391
  entropy:           374.5079711
  heat_capacity:     272.8001458
  energy:            108.0680914

- temperature:       340.0000000
  free_energy:       -19.3056124
  entropy:           382.6730913
  heat_capacity:     274.2106396
  energy:            110.8032386

- temperature:       350.0000000
  free_energy:       -23.1723430
  entropy:           390.6408351
  heat_capacity:     275.5146158
  energy:            113.5519493

- temperature:       360.0000000
  free_energy:       -27.1177988
  entropy:           398.4194685
  heat_capacity:     276.7222234
  energy:            116.3132099

- temperature:       370.0000000
  free_energy:       -31.1401282
  entropy:           406.0168402
  heat_capacity:     277.8424700
  energy:            119.0861027

- temperature:       380.0000000
  free_energy:       -35.2375563
  entropy:           413.4403977
  heat_capacity:     278.8833660
  energy:            121.8697949

- temperature:       390.0000000
  free_energy:       -39.4083804
  entropy:           420.6972044
  heat_capacity:     279.8520505
  energy:            124.6635294

- temperature:       400.0000000
  free_energy:       -43.6509669
  entropy:           427.7939584
  heat_capacity:     280.7548982
  energy:            127.4666165

- temperature:       410.0000000
  free_energy:       -47.9637472
  entropy:           434.7370102
  heat_capacity:     281.5976132
  energy:            130.2784269

- temperature:       420.0000000
  free_energy:       -52.3452148
  entropy:           441.5323816
  heat_capacity:     282.3853092
  energy:            133.0983854

- temperature:       430.0000000
  free_energy:       -56.7939217
  entropy:           448.1857832
  heat_capacity:     283.1225796
  energy:            135.9259651

- temperature:       440.0000000
  free_energy:       -61.3084754
  entropy:           454.7026321
  heat_capacity:     283.8135583
  energy:            138.7606827

- temperature:       450.0000000
  free_energy:       -65.8875363
  entropy:           461.0880683
  heat_capacity:     284.4619723
  energy:            141.6020944

- temperature:       460.0000000
  free_energy:       -70.5298150
  entropy:           467.3469707
  heat_capacity:     285.0711881
  energy:            144.4497916

- temperature:       470.0000000
  free_energy:       -75.2340694
  entropy:           473.4839726
  heat_capacity:     285.6442515
  energy:            147.3033977

- temperature:       480.0000000
  free_energy:       -79.9991028
  entropy:           479.5034752
  heat_capacity:     286.1839234
  energy:            150.1625653

- temperature:       490.0000000
  free_energy:       -84.8237612
  entropy:           485.4096622
  heat_capacity:     286.6927101
  energy:            153.0269732

- temperature:       500.0000000
  free_energy:       -89.7069316
  entropy:           491.2065116
  heat_capacity:     287.1728908
  energy:            155.8963242

- temperature:       510.0000000
  free_energy:       -94.6475396
  entropy:           496.8978084
  heat_capacity:     287.6265413
  energy:            158.7703426

- temperature:       520.0000000
  free_energy:       -99.6445479
  entropy:           502.4871555
  heat_capacity:     288.0555552
  energy:            161.6487729

- temperature:       530.0000000
  free_energy:      -104.6969544
  entropy:           507.9779845
  heat_capacity:     288.4616623
  energy:            164.5313774

- temperature:       540.0000000
  free_energy:      -109.8037902
  entropy:           513.3735653
  heat_capacity:     288.8464452
  energy:            167.4179351

- temperature:       550.0000000
  free_energy:      -114.9641186
  entropy:           518.6770157
  heat_capacity:     289.2113540
  energy:            170.3082401

- temperature:       560.0000000
  free_energy:      -120.1770333
  entropy:           523.8913101
  heat_capacity:     289.5577187
  energy:            173.2021004

- temperature:       570.0000000
  free_energy:      -125.4416571
  entropy:           529.0192874
  heat_capacity:     289.8867614
  energy:            176.0993367

- temperature:       580.0000000
  free_energy:      -130.7571404
  entropy:           534.0636586
  heat_capacity:     290.1996063
  energy:            178.9997816

- temperature:       590.0000000
  free_energy:      -136.1226602
  entropy:           539.0270144
  heat_capacity:     290.4972887
  energy:            181.9032783

- temperature:       600.0000000
  free_energy:      -141.5374189
  entropy:           543.9118315
  heat_capacity:     290.7807634
  energy:            184.8096800

- temperature:       610.0000000
  free_energy:      -147.0006429
  entropy:           548.7204789
  heat_capacity:     291.0509118
  energy:            187.7188492

- temperature:       620.0000000
  free_energy:      -152.5115821
  entropy:           553.4552237
  heat_capacity:     291.3085489
  energy:            190.6306566

- temperature:       630.0000000
  free_energy:      -158.0695083
  entropy:           558.1182370
  heat_capacity:     291.5544288
  energy:            193.5449810

- temperature:       640.0000000
  free_energy:      -163.6737147
  entropy:           562.7115984
  heat_capacity:     291.7892499
  energy:            196.4617083

- temperature:       650.0000000
  free_energy:      -169.3235148
  entropy:           567.2373016
  heat_capacity:     292.0136604
  energy:            199.3807313

- temperature:       660.0000000
  free_energy:      -175.0182416
  entropy:           571.6972582
  heat_capacity:     292.2282617
  energy:            202.3019488

- temperature:       670.0000000
  free_energy:      -180.7572469
  entropy:           576.0933024
  heat_capacity:     292.4336129
  energy:            205.2252657

- temperature:       680.0000000
  free_energy:      -186.5399005
  entropy:           580.4271948
  heat_capacity:     292.6302341
  energy:            208.1505920

- temperature:       690.0000000
  free_energy:      -192.3655893
  entropy:           584.7006263
  heat_capacity:     292.8186097
  energy:            211.0778429

- temperature:       700.0000000
  free_energy:      -198.2337169
  entropy:           588.9152215
  heat_capacity:     292.9991911
  energy:            214.0069382

- temperature:       710.0000000
  free_energy:      -204.1437028
  entropy:           593.0725421
  heat_capacity:     293.1723995
  energy:            216.9378021

- temperature:       720.0000000
  free_energy:      -210.0949818
  entropy:           597.1740899
  heat_capacity:     293.3386282
  energy:            219.8703629

- temperature:       730.0000000
  free_energy:      -216.0870035
  entropy:           601.2213098
  heat_capacity:     293.4982449
  energy:            222.8045526

- temperature:       740.0000000
  free_energy:      -222.1192316
  entropy:           605.2155925
  heat_capacity:     293.6515934
  energy:            225.7403069

- temperature:       750.0000000
  free_energy:      -228.1911434
  entropy:           609.1582774
  heat_capacity:     293.7989957
  energy:            228.6775647

- temperature:       760.0000000
  free_energy:      -234.3022294
  entropy:           613.0506545
  heat_capacity:     293.9407535
  energy:            231.6162680

- temperature:       770.0000000
  free_energy:      -240.4519929
  entropy:           616.8939673
  heat_capacity:     294.0771496
  energy:            234.5563619

- temperature:       780.0000000
  free_energy:      -246.6399492
  entropy:           620.6894144
  heat_capacity:     294.2084496
  energy:            237.4977940

- temperature:       790.0000000
  free_energy:      -252.8656255
  entropy:           624.4381522
  heat_capacity:     294.3349028
  energy:            240.4405147

- temperature:       800.0000000
  free_energy:      -259.1285603
  entropy:           628.1412963
  heat_capacity:     294.4567436
  energy:            243.3844767

- temperature:       810.0000000
  free_energy:      -265.4283031
  entropy:           631.7999235
  heat_capacity:     294.5741924
  energy:            246.3296350

- temperature:       820.0000000
  free_energy:      -271.7644138
  entropy:           635.4150737
  heat_capacity:     294.6874567
  energy:            249.2759466

- temperature:       830.0000000
  free_energy:      -278.1364630
  entropy:           638.9877515
  heat_capacity:     294.7967320
  energy:            252.2233708

- temperature:       840.0000000
  free_energy:      -284.5440305
  entropy:           642.5189275
  heat_capacity:     294.9022026
  energy:            255.1718686

- temperature:       850.0000000
  free_energy:      -290.9867063
  entropy:           646.0095401
  heat_capacity:     295.0040422
  energy:            258.1214028

- temperature:       860.0000000
  free_energy:      -297.4640892
  entropy:           649.4604965
  heat_capacity:     295.1024147
  energy:            261.0719379

- temperature:       870.0000000
  free_energy:      -303.9757870
  entropy:           652.8726747
  heat_capacity:     295.1974752
  energy:            264.0234400

- temperature:       880.0000000
  free_energy:      -310.5214162
  entropy:           656.2469239
  heat_capacity:     295.2893699
  energy:            266.9758768

- temperature:       890.0000000
  free_energy:      -317.1006018
  entropy:           659.5840664
  heat_capacity:     295.3782374
  energy:            269.9292173

- temperature:       900.0000000
  free_energy:      -323.7129765
  entropy:           662.8848983
  heat_capacity:     295.4642085
  energy:            272.8834319

- temperature:       910.0000000
  free_energy:      -330.3581813
  entropy:           666.1501907
  heat_capacity:     295.5474073
  energy:            275.8384922

- temperature:       920.0000000
  free_energy:      -337.0358644
  entropy:           669.3806908
  heat_capacity:     295.6279511
  energy:            278.7943712

- temperature:       930.0000000
  free_energy:      -343.7456815
  entropy:           672.5771229
  heat_capacity:     295.7059514
  energy:            281.7510428

- temperature:       940.0000000
  free_energy:      -350.4872956
  entropy:           675.7401890
  heat_capacity:     295.7815137
  energy:            284.7084821

- temperature:       950.0000000
  free_energy:      -357.2603764
  entropy:           678.8705701
  heat_capacity:     295.8547382
  energy:            287.6666653

- temperature:       960.0000000
  free_energy:      -364.0646003
  entropy:           681.9689267
  heat_capacity:     295.9257199
  energy:            290.6255694

- temperature:       970.0000000
  free_energy:      -370.8996503
  entropy:           685.0358998
  heat_capacity:     295.9945493
  energy:            293.5851725

- temperature:       980.0000000
  free_energy:      -377.7652157
  entropy:           688.0721114
  heat_capacity:     296.0613121
  energy:            296.5454535

- temperature:       990.0000000
  free_energy:      -384.6609920
  entropy:           691.0781658
  heat_capacity:     296.1260899
  energy:            299.5063921

- temperature:      1000.0000000
  free_energy:      -391.5866805
  entropy:           694.0546494
  heat_capacity:     296.1889605
  energy:            302.4679689
