# Tetrahedron method
       -1.1607865982        0.0000000000
       -1.0911394096        0.0000000000
       -1.0214922209        0.0000000000
       -0.9518450322        0.0000000000
       -0.8821978435        0.0000000000
       -0.8125506549        0.0000000000
       -0.7429034662        0.0000000000
       -0.6732562775        0.0000000000
       -0.6036090889        0.0000000000
       -0.5339619002        0.0000000000
       -0.4643147115        0.0000000000
       -0.3946675229        0.0000000000
       -0.3250203342        0.0000000000
       -0.2553731455        0.0000000000
       -0.1857259569        0.0000000000
       -0.1160787682        0.0000000000
       -0.0464315795        0.0000000000
        0.0232156092        0.0004701737
        0.0928627978        0.0075227841
        0.1625099865        0.0234458088
        0.2321571752        0.0521694802
        0.3018043638        0.1133422396
        0.3714515525        0.1832208279
        0.4410987412        0.3459469257
        0.5107459298        0.7291763762
        0.5803931185        1.2479498083
        0.6500403072        1.8689159888
        0.7196874958        2.3551340995
        0.7893346845        2.9910932227
        0.8589818732        3.1299138640
        0.9286290619        3.4597883124
        0.9982762505        3.2495734976
        1.0679234392        4.3298350410
        1.1375706279        4.3962785519
        1.2072178165        5.4210391805
        1.2768650052        6.0063795540
        1.3465121939        5.7346744295
        1.4161593825        5.2504095158
        1.4858065712        5.5130385015
        1.5554537599        5.0116571611
        1.6251009485        4.6061529378
        1.6947481372        4.2589316304
        1.7643953259        4.9778694101
        1.8340425145        4.9350428317
        1.9036897032        4.6507142684
        1.9733368919        4.2934333738
        2.0429840806        4.5462669812
        2.1126312692        2.3278547897
        2.1822784579        3.5308024915
        2.2519256466        4.1248042722
        2.3215728352        4.6930186355
        2.3912200239        4.0295277248
        2.4608672126        3.5665886900
        2.5305144012        1.7919919969
        2.6001615899        2.0053930924
        2.6698087786        2.2794068166
        2.7394559672        1.9724953816
        2.8091031559        1.2463107850
        2.8787503446        1.0643324395
        2.9483975333        1.0604835961
        3.0180447219        0.9638577911
        3.0876919106        1.1846101869
        3.1573390993        1.1479472236
        3.2269862879        1.1207391487
        3.2966334766        1.1093310559
        3.3662806653        1.1240001899
        3.4359278539        1.2252589415
        3.5055750426        1.5625971495
        3.5752222313        3.9929120686
        3.6448694199        1.5908961434
        3.7145166086        2.5924987271
        3.7841637973        4.0343401411
        3.8538109860        3.9450883186
        3.9234581746        4.9582308403
        3.9931053633        5.6970501719
        4.0627525520        4.6231286857
        4.1323997406        2.1862833207
        4.2020469293        1.2630981466
        4.2716941180        0.4273803378
        4.3413413066        0.2404342197
        4.4109884953        0.1287451184
        4.4806356840        0.0000000000
        4.5502828726        0.0000000000
        4.6199300613        0.0000000000
        4.6895772500        0.0000000000
        4.7592244386        0.0000000000
        4.8288716273        0.3578698703
        4.8985188160        2.1413249617
        4.9681660047        5.7722833018
        5.0378131933        6.8271442268
        5.1074603820        4.1474471492
        5.1771075707        2.7195019242
        5.2467547593        4.6508307218
        5.3164019480        2.6394988285
        5.3860491367        1.5810426894
        5.4556963253        1.5493236747
        5.5253435140        2.3486440986
        5.5949907027        3.2119622557
        5.6646378913        3.0518975658
        5.7342850800        4.3909997386
        5.8039322687        5.6698598699
        5.8735794574        3.6135913217
        5.9432266460        2.7094271352
        6.0128738347        2.3450561261
        6.0825210234        3.0601267427
        6.1521682120        3.3575717737
        6.2218154007        3.5771963479
        6.2914625894        3.2873890417
        6.3611097780        2.9633264988
        6.4307569667        2.8022699325
        6.5004041554        3.2275145650
        6.5700513440        3.1129795737
        6.6396985327        3.0224367303
        6.7093457214        2.8641934826
        6.7789929101        5.4551863382
        6.8486400987        5.7726437516
        6.9182872874        5.6323584232
        6.9879344761        3.9158591340
        7.0575816647        2.1737605514
        7.1272288534        1.0100856919
        7.1968760421        0.0000000000
        7.2665232307        0.7519095987
        7.3361704194        1.3200138445
        7.4058176081        1.8290137873
        7.4754647967        2.0918486746
        7.5451119854        2.3910980002
        7.6147591741        3.3875891918
        7.6844063627        1.4549776392
        7.7540535514        1.3283494087
        7.8237007401        1.2582307579
        7.8933479288        1.9229272428
        7.9629951174        3.2653292196
        8.0326423061        3.5070493775
        8.1022894948        2.9461802556
        8.1719366834        3.1218490583
        8.2415838721        3.9106759037
        8.3112310608        3.6308183764
        8.3808782494        4.0530092248
        8.4505254381        4.6903871254
        8.5201726268        3.4474884590
        8.5898198154        2.7622941796
        8.6594670041        2.2773630425
        8.7291141928        2.6338180858
        8.7987613815        2.7933404227
        8.8684085701        4.1810454187
        8.9380557588        3.6679558031
        9.0077029475        3.9118064289
        9.0773501361        4.4872355643
        9.1469973248        4.6599142622
        9.2166445135        4.8148307802
        9.2862917021        4.9891209474
        9.3559388908        5.1896976930
        9.4255860795        5.5048162695
        9.4952332681        6.3262302455
        9.5648804568        6.4360764734
        9.6345276455        5.8115949642
        9.7041748342        4.6910140715
        9.7738220228        4.1647461856
        9.8434692115        4.0381546154
        9.9131164002        3.0513056001
        9.9827635888        2.3256662826
       10.0524107775        3.2365150547
       10.1220579662        3.6588498185
       10.1917051548        4.8017059624
       10.2613523435        9.0035917965
       10.3309995322        6.1610732703
       10.4006467208        7.1501834083
       10.4702939095        3.9646318139
       10.5399410982        3.5996370893
       10.6095882868        3.0730095955
       10.6792354755        3.5948996295
       10.7488826642        3.7645491645
       10.8185298529        3.9192758336
       10.8881770415        3.9823405024
       10.9578242302        4.4223017533
       11.0274714189        3.8639066881
       11.0971186075        2.2306535947
       11.1667657962        2.4210309410
       11.2364129849        3.0309117555
       11.3060601735        4.0791125394
       11.3757073622        3.9765737835
       11.4453545509        3.1215986901
       11.5150017395        2.6904245737
       11.5846489282        1.8785877553
       11.6542961169        0.0000000000
       11.7239433056        0.0000000000
       11.7935904942        0.0000000000
       11.8632376829        0.0000000000
       11.9328848716        0.0000000000
       12.0025320602        0.0000000000
       12.0721792489        0.0000000000
       12.1418264376        0.0000000000
       12.2114736262        0.0000000000
       12.2811208149        0.0000000000
       12.3507680036        0.0000000000
       12.4204151922        0.0000000000
       12.4900623809        0.0000000000
       12.5597095696        0.0000000000
       12.6293567583        0.0000000000
       12.6990039469        0.0000000000
       12.7686511356        0.0000000000
