phonopy:
  version: "2.37.1"
  frequency_unit_conversion_factor: 15.633302
  symmetry_tolerance: 1.00000e-05

space_group:
  type: "P1"
  number: 1
  Hall_symbol: "P 1"

primitive_matrix:
- [ -1.000000000000000, -0.000000000000000,  0.000000000000000 ]
- [  0.000000000000000,  1.000000000000000, -1.000000000000000 ]
- [  1.000000000000000, -1.000000000000000,  0.000000000000000 ]

supercell_matrix:
- [   3,   0,   0 ]
- [   0,   3,   0 ]
- [   0,   0,   3 ]

primitive_cell:
  lattice:
  - [    -2.217001234089525,     1.280657729037012,     3.621087341234947 ] # a
  - [    -0.001557190167990,     2.561020964108999,    -3.621087341234947 ] # b
  - [    -2.217704777224473,    -3.841678693146012,     0.000000000000000 ] # c
  points:
  - symbol: Li # 1
    coordinates: [  0.478296339511872,  0.253924638032913,  0.137538850307465 ]
    mass: 6.940000
  - symbol: Li # 2
    coordinates: [  0.978263663128019,  0.253997908905148,  0.637743400409817 ]
    mass: 6.940000
  - symbol: Ga # 3
    coordinates: [  0.228156626224518,  0.753896653652191,  0.387571513652802 ]
    mass: 69.723000
  - symbol: Ga # 4
    coordinates: [  0.728089094161987,  0.753796398639679,  0.887485682964325 ]
    mass: 69.723000
  reciprocal_lattice: # without 2pi
  - [    -0.225414939236684,     0.130126392010566,     0.092129076272501 ] # a*
  - [    -0.225414939236684,     0.130126392010566,    -0.184031067287846 ] # b*
  - [    -0.225414939236684,    -0.130176480737254,    -0.091970629507479 ] # c*

unit_cell:
  lattice:
  - [     4.436263201481989,     0.000000000000000,     0.000000000000000 ] # a
  - [     2.217704777224473,     3.841678693146012,     0.000000000000000 ] # b
  - [     2.219261967392464,     1.280657729037012,     3.621087341234947 ] # c
  points:
  - symbol: Li # 1
    coordinates: [  0.521703660488128,  0.116385787725449,  0.224371701478958 ]
    mass: 6.940000
    reduced_to: 1
  - symbol: Li # 2
    coordinates: [  0.021736336871981,  0.616254508495331,  0.724265754222870 ]
    mass: 6.940000
    reduced_to: 2
  - symbol: Ga # 3
    coordinates: [  0.771843373775482,  0.366325139999390,  0.474259972572327 ]
    mass: 69.723000
    reduced_to: 3
  - symbol: Ga # 4
    coordinates: [  0.271910905838013,  0.866310715675354,  0.974292695522309 ]
    mass: 69.723000
    reduced_to: 4

supercell:
  lattice:
  - [    13.308789604445966,     0.000000000000000,     0.000000000000000 ] # a
  - [     6.653114331673420,    11.525036079438035,     0.000000000000000 ] # b
  - [     6.657785902177391,     3.841973187111037,    10.863262023704841 ] # c
  points:
  - symbol: Li # 1
    coordinates: [  0.173901220162709,  0.038795262575150,  0.074790567159653 ]
    mass: 6.940000
    reduced_to: 1
  - symbol: Li # 2
    coordinates: [  0.507234553496043,  0.038795262575150,  0.074790567159653 ]
    mass: 6.940000
    reduced_to: 1
  - symbol: Li # 3
    coordinates: [  0.840567886829376,  0.038795262575150,  0.074790567159653 ]
    mass: 6.940000
    reduced_to: 1
  - symbol: Li # 4
    coordinates: [  0.173901220162709,  0.372128595908483,  0.074790567159653 ]
    mass: 6.940000
    reduced_to: 1
  - symbol: Li # 5
    coordinates: [  0.507234553496043,  0.372128595908483,  0.074790567159653 ]
    mass: 6.940000
    reduced_to: 1
  - symbol: Li # 6
    coordinates: [  0.840567886829376,  0.372128595908483,  0.074790567159653 ]
    mass: 6.940000
    reduced_to: 1
  - symbol: Li # 7
    coordinates: [  0.173901220162709,  0.705461929241816,  0.074790567159653 ]
    mass: 6.940000
    reduced_to: 1
  - symbol: Li # 8
    coordinates: [  0.507234553496043,  0.705461929241816,  0.074790567159653 ]
    mass: 6.940000
    reduced_to: 1
  - symbol: Li # 9
    coordinates: [  0.840567886829376,  0.705461929241816,  0.074790567159653 ]
    mass: 6.940000
    reduced_to: 1
  - symbol: Li # 10
    coordinates: [  0.173901220162709,  0.038795262575150,  0.408123900492986 ]
    mass: 6.940000
    reduced_to: 1
  - symbol: Li # 11
    coordinates: [  0.507234553496043,  0.038795262575150,  0.408123900492986 ]
    mass: 6.940000
    reduced_to: 1
  - symbol: Li # 12
    coordinates: [  0.840567886829376,  0.038795262575150,  0.408123900492986 ]
    mass: 6.940000
    reduced_to: 1
  - symbol: Li # 13
    coordinates: [  0.173901220162709,  0.372128595908483,  0.408123900492986 ]
    mass: 6.940000
    reduced_to: 1
  - symbol: Li # 14
    coordinates: [  0.507234553496043,  0.372128595908483,  0.408123900492986 ]
    mass: 6.940000
    reduced_to: 1
  - symbol: Li # 15
    coordinates: [  0.840567886829376,  0.372128595908483,  0.408123900492986 ]
    mass: 6.940000
    reduced_to: 1
  - symbol: Li # 16
    coordinates: [  0.173901220162709,  0.705461929241816,  0.408123900492986 ]
    mass: 6.940000
    reduced_to: 1
  - symbol: Li # 17
    coordinates: [  0.507234553496043,  0.705461929241816,  0.408123900492986 ]
    mass: 6.940000
    reduced_to: 1
  - symbol: Li # 18
    coordinates: [  0.840567886829376,  0.705461929241816,  0.408123900492986 ]
    mass: 6.940000
    reduced_to: 1
  - symbol: Li # 19
    coordinates: [  0.173901220162709,  0.038795262575150,  0.741457233826319 ]
    mass: 6.940000
    reduced_to: 1
  - symbol: Li # 20
    coordinates: [  0.507234553496043,  0.038795262575150,  0.741457233826319 ]
    mass: 6.940000
    reduced_to: 1
  - symbol: Li # 21
    coordinates: [  0.840567886829376,  0.038795262575150,  0.741457233826319 ]
    mass: 6.940000
    reduced_to: 1
  - symbol: Li # 22
    coordinates: [  0.173901220162709,  0.372128595908483,  0.741457233826319 ]
    mass: 6.940000
    reduced_to: 1
  - symbol: Li # 23
    coordinates: [  0.507234553496043,  0.372128595908483,  0.741457233826319 ]
    mass: 6.940000
    reduced_to: 1
  - symbol: Li # 24
    coordinates: [  0.840567886829376,  0.372128595908483,  0.741457233826319 ]
    mass: 6.940000
    reduced_to: 1
  - symbol: Li # 25
    coordinates: [  0.173901220162709,  0.705461929241816,  0.741457233826319 ]
    mass: 6.940000
    reduced_to: 1
  - symbol: Li # 26
    coordinates: [  0.507234553496043,  0.705461929241816,  0.741457233826319 ]
    mass: 6.940000
    reduced_to: 1
  - symbol: Li # 27
    coordinates: [  0.840567886829376,  0.705461929241816,  0.741457233826319 ]
    mass: 6.940000
    reduced_to: 1
  - symbol: Li # 28
    coordinates: [  0.007245445623994,  0.205418169498444,  0.241421918074290 ]
    mass: 6.940000
    reduced_to: 28
  - symbol: Li # 29
    coordinates: [  0.340578778957327,  0.205418169498444,  0.241421918074290 ]
    mass: 6.940000
    reduced_to: 28
  - symbol: Li # 30
    coordinates: [  0.673912112290661,  0.205418169498444,  0.241421918074290 ]
    mass: 6.940000
    reduced_to: 28
  - symbol: Li # 31
    coordinates: [  0.007245445623994,  0.538751502831777,  0.241421918074290 ]
    mass: 6.940000
    reduced_to: 28
  - symbol: Li # 32
    coordinates: [  0.340578778957327,  0.538751502831777,  0.241421918074290 ]
    mass: 6.940000
    reduced_to: 28
  - symbol: Li # 33
    coordinates: [  0.673912112290661,  0.538751502831777,  0.241421918074290 ]
    mass: 6.940000
    reduced_to: 28
  - symbol: Li # 34
    coordinates: [  0.007245445623994,  0.872084836165110,  0.241421918074290 ]
    mass: 6.940000
    reduced_to: 28
  - symbol: Li # 35
    coordinates: [  0.340578778957327,  0.872084836165110,  0.241421918074290 ]
    mass: 6.940000
    reduced_to: 28
  - symbol: Li # 36
    coordinates: [  0.673912112290661,  0.872084836165110,  0.241421918074290 ]
    mass: 6.940000
    reduced_to: 28
  - symbol: Li # 37
    coordinates: [  0.007245445623994,  0.205418169498444,  0.574755251407623 ]
    mass: 6.940000
    reduced_to: 28
  - symbol: Li # 38
    coordinates: [  0.340578778957327,  0.205418169498444,  0.574755251407623 ]
    mass: 6.940000
    reduced_to: 28
  - symbol: Li # 39
    coordinates: [  0.673912112290661,  0.205418169498444,  0.574755251407623 ]
    mass: 6.940000
    reduced_to: 28
  - symbol: Li # 40
    coordinates: [  0.007245445623994,  0.538751502831777,  0.574755251407623 ]
    mass: 6.940000
    reduced_to: 28
  - symbol: Li # 41
    coordinates: [  0.340578778957327,  0.538751502831777,  0.574755251407623 ]
    mass: 6.940000
    reduced_to: 28
  - symbol: Li # 42
    coordinates: [  0.673912112290661,  0.538751502831777,  0.574755251407623 ]
    mass: 6.940000
    reduced_to: 28
  - symbol: Li # 43
    coordinates: [  0.007245445623994,  0.872084836165110,  0.574755251407623 ]
    mass: 6.940000
    reduced_to: 28
  - symbol: Li # 44
    coordinates: [  0.340578778957327,  0.872084836165110,  0.574755251407623 ]
    mass: 6.940000
    reduced_to: 28
  - symbol: Li # 45
    coordinates: [  0.673912112290661,  0.872084836165110,  0.574755251407623 ]
    mass: 6.940000
    reduced_to: 28
  - symbol: Li # 46
    coordinates: [  0.007245445623994,  0.205418169498444,  0.908088584740957 ]
    mass: 6.940000
    reduced_to: 28
  - symbol: Li # 47
    coordinates: [  0.340578778957327,  0.205418169498444,  0.908088584740957 ]
    mass: 6.940000
    reduced_to: 28
  - symbol: Li # 48
    coordinates: [  0.673912112290661,  0.205418169498444,  0.908088584740957 ]
    mass: 6.940000
    reduced_to: 28
  - symbol: Li # 49
    coordinates: [  0.007245445623994,  0.538751502831777,  0.908088584740957 ]
    mass: 6.940000
    reduced_to: 28
  - symbol: Li # 50
    coordinates: [  0.340578778957327,  0.538751502831777,  0.908088584740957 ]
    mass: 6.940000
    reduced_to: 28
  - symbol: Li # 51
    coordinates: [  0.673912112290661,  0.538751502831777,  0.908088584740957 ]
    mass: 6.940000
    reduced_to: 28
  - symbol: Li # 52
    coordinates: [  0.007245445623994,  0.872084836165110,  0.908088584740957 ]
    mass: 6.940000
    reduced_to: 28
  - symbol: Li # 53
    coordinates: [  0.340578778957327,  0.872084836165110,  0.908088584740957 ]
    mass: 6.940000
    reduced_to: 28
  - symbol: Li # 54
    coordinates: [  0.673912112290661,  0.872084836165110,  0.908088584740957 ]
    mass: 6.940000
    reduced_to: 28
  - symbol: Ga # 55
    coordinates: [  0.257281124591827,  0.122108379999797,  0.158086657524109 ]
    mass: 69.723000
    reduced_to: 55
  - symbol: Ga # 56
    coordinates: [  0.590614457925161,  0.122108379999797,  0.158086657524109 ]
    mass: 69.723000
    reduced_to: 55
  - symbol: Ga # 57
    coordinates: [  0.923947791258494,  0.122108379999797,  0.158086657524109 ]
    mass: 69.723000
    reduced_to: 55
  - symbol: Ga # 58
    coordinates: [  0.257281124591827,  0.455441713333130,  0.158086657524109 ]
    mass: 69.723000
    reduced_to: 55
  - symbol: Ga # 59
    coordinates: [  0.590614457925161,  0.455441713333130,  0.158086657524109 ]
    mass: 69.723000
    reduced_to: 55
  - symbol: Ga # 60
    coordinates: [  0.923947791258494,  0.455441713333130,  0.158086657524109 ]
    mass: 69.723000
    reduced_to: 55
  - symbol: Ga # 61
    coordinates: [  0.257281124591827,  0.788775046666463,  0.158086657524109 ]
    mass: 69.723000
    reduced_to: 55
  - symbol: Ga # 62
    coordinates: [  0.590614457925161,  0.788775046666463,  0.158086657524109 ]
    mass: 69.723000
    reduced_to: 55
  - symbol: Ga # 63
    coordinates: [  0.923947791258494,  0.788775046666463,  0.158086657524109 ]
    mass: 69.723000
    reduced_to: 55
  - symbol: Ga # 64
    coordinates: [  0.257281124591827,  0.122108379999797,  0.491419990857442 ]
    mass: 69.723000
    reduced_to: 55
  - symbol: Ga # 65
    coordinates: [  0.590614457925161,  0.122108379999797,  0.491419990857442 ]
    mass: 69.723000
    reduced_to: 55
  - symbol: Ga # 66
    coordinates: [  0.923947791258494,  0.122108379999797,  0.491419990857442 ]
    mass: 69.723000
    reduced_to: 55
  - symbol: Ga # 67
    coordinates: [  0.257281124591827,  0.455441713333130,  0.491419990857442 ]
    mass: 69.723000
    reduced_to: 55
  - symbol: Ga # 68
    coordinates: [  0.590614457925161,  0.455441713333130,  0.491419990857442 ]
    mass: 69.723000
    reduced_to: 55
  - symbol: Ga # 69
    coordinates: [  0.923947791258494,  0.455441713333130,  0.491419990857442 ]
    mass: 69.723000
    reduced_to: 55
  - symbol: Ga # 70
    coordinates: [  0.257281124591827,  0.788775046666463,  0.491419990857442 ]
    mass: 69.723000
    reduced_to: 55
  - symbol: Ga # 71
    coordinates: [  0.590614457925161,  0.788775046666463,  0.491419990857442 ]
    mass: 69.723000
    reduced_to: 55
  - symbol: Ga # 72
    coordinates: [  0.923947791258494,  0.788775046666463,  0.491419990857442 ]
    mass: 69.723000
    reduced_to: 55
  - symbol: Ga # 73
    coordinates: [  0.257281124591827,  0.122108379999797,  0.824753324190776 ]
    mass: 69.723000
    reduced_to: 55
  - symbol: Ga # 74
    coordinates: [  0.590614457925161,  0.122108379999797,  0.824753324190776 ]
    mass: 69.723000
    reduced_to: 55
  - symbol: Ga # 75
    coordinates: [  0.923947791258494,  0.122108379999797,  0.824753324190776 ]
    mass: 69.723000
    reduced_to: 55
  - symbol: Ga # 76
    coordinates: [  0.257281124591827,  0.455441713333130,  0.824753324190776 ]
    mass: 69.723000
    reduced_to: 55
  - symbol: Ga # 77
    coordinates: [  0.590614457925161,  0.455441713333130,  0.824753324190776 ]
    mass: 69.723000
    reduced_to: 55
  - symbol: Ga # 78
    coordinates: [  0.923947791258494,  0.455441713333130,  0.824753324190776 ]
    mass: 69.723000
    reduced_to: 55
  - symbol: Ga # 79
    coordinates: [  0.257281124591827,  0.788775046666463,  0.824753324190776 ]
    mass: 69.723000
    reduced_to: 55
  - symbol: Ga # 80
    coordinates: [  0.590614457925161,  0.788775046666463,  0.824753324190776 ]
    mass: 69.723000
    reduced_to: 55
  - symbol: Ga # 81
    coordinates: [  0.923947791258494,  0.788775046666463,  0.824753324190776 ]
    mass: 69.723000
    reduced_to: 55
  - symbol: Ga # 82
    coordinates: [  0.090636968612671,  0.288770238558451,  0.324764231840770 ]
    mass: 69.723000
    reduced_to: 82
  - symbol: Ga # 83
    coordinates: [  0.423970301946004,  0.288770238558451,  0.324764231840770 ]
    mass: 69.723000
    reduced_to: 82
  - symbol: Ga # 84
    coordinates: [  0.757303635279338,  0.288770238558451,  0.324764231840770 ]
    mass: 69.723000
    reduced_to: 82
  - symbol: Ga # 85
    coordinates: [  0.090636968612671,  0.622103571891785,  0.324764231840770 ]
    mass: 69.723000
    reduced_to: 82
  - symbol: Ga # 86
    coordinates: [  0.423970301946004,  0.622103571891785,  0.324764231840770 ]
    mass: 69.723000
    reduced_to: 82
  - symbol: Ga # 87
    coordinates: [  0.757303635279338,  0.622103571891785,  0.324764231840770 ]
    mass: 69.723000
    reduced_to: 82
  - symbol: Ga # 88
    coordinates: [  0.090636968612671,  0.955436905225118,  0.324764231840770 ]
    mass: 69.723000
    reduced_to: 82
  - symbol: Ga # 89
    coordinates: [  0.423970301946004,  0.955436905225118,  0.324764231840770 ]
    mass: 69.723000
    reduced_to: 82
  - symbol: Ga # 90
    coordinates: [  0.757303635279338,  0.955436905225118,  0.324764231840770 ]
    mass: 69.723000
    reduced_to: 82
  - symbol: Ga # 91
    coordinates: [  0.090636968612671,  0.288770238558451,  0.658097565174103 ]
    mass: 69.723000
    reduced_to: 82
  - symbol: Ga # 92
    coordinates: [  0.423970301946004,  0.288770238558451,  0.658097565174103 ]
    mass: 69.723000
    reduced_to: 82
  - symbol: Ga # 93
    coordinates: [  0.757303635279338,  0.288770238558451,  0.658097565174103 ]
    mass: 69.723000
    reduced_to: 82
  - symbol: Ga # 94
    coordinates: [  0.090636968612671,  0.622103571891785,  0.658097565174103 ]
    mass: 69.723000
    reduced_to: 82
  - symbol: Ga # 95
    coordinates: [  0.423970301946004,  0.622103571891785,  0.658097565174103 ]
    mass: 69.723000
    reduced_to: 82
  - symbol: Ga # 96
    coordinates: [  0.757303635279338,  0.622103571891785,  0.658097565174103 ]
    mass: 69.723000
    reduced_to: 82
  - symbol: Ga # 97
    coordinates: [  0.090636968612671,  0.955436905225118,  0.658097565174103 ]
    mass: 69.723000
    reduced_to: 82
  - symbol: Ga # 98
    coordinates: [  0.423970301946004,  0.955436905225118,  0.658097565174103 ]
    mass: 69.723000
    reduced_to: 82
  - symbol: Ga # 99
    coordinates: [  0.757303635279338,  0.955436905225118,  0.658097565174103 ]
    mass: 69.723000
    reduced_to: 82
  - symbol: Ga # 100
    coordinates: [  0.090636968612671,  0.288770238558451,  0.991430898507436 ]
    mass: 69.723000
    reduced_to: 82
  - symbol: Ga # 101
    coordinates: [  0.423970301946004,  0.288770238558451,  0.991430898507436 ]
    mass: 69.723000
    reduced_to: 82
  - symbol: Ga # 102
    coordinates: [  0.757303635279338,  0.288770238558451,  0.991430898507436 ]
    mass: 69.723000
    reduced_to: 82
  - symbol: Ga # 103
    coordinates: [  0.090636968612671,  0.622103571891785,  0.991430898507436 ]
    mass: 69.723000
    reduced_to: 82
  - symbol: Ga # 104
    coordinates: [  0.423970301946004,  0.622103571891785,  0.991430898507436 ]
    mass: 69.723000
    reduced_to: 82
  - symbol: Ga # 105
    coordinates: [  0.757303635279338,  0.622103571891785,  0.991430898507436 ]
    mass: 69.723000
    reduced_to: 82
  - symbol: Ga # 106
    coordinates: [  0.090636968612671,  0.955436905225118,  0.991430898507436 ]
    mass: 69.723000
    reduced_to: 82
  - symbol: Ga # 107
    coordinates: [  0.423970301946004,  0.955436905225118,  0.991430898507436 ]
    mass: 69.723000
    reduced_to: 82
  - symbol: Ga # 108
    coordinates: [  0.757303635279338,  0.955436905225118,  0.991430898507436 ]
    mass: 69.723000
    reduced_to: 82

displacements:
- atom:    1
  displacement:
    [   0.0100000000000000,  0.0000000000000000,  0.0000000000000000 ]
  forces:
  - [  -0.0255287606269121, -0.0011135088279843, -0.0009095617569983 ]
  - [   0.0009634587913752, -0.0011326735839248, -0.0009270459413528 ]
  - [   0.0009647638071328, -0.0011463109403849, -0.0009389757178724 ]
  - [   0.0008262232877314, -0.0010584124829620, -0.0007313154637814 ]
  - [   0.0005724161164835, -0.0011295080184937, -0.0009137419983745 ]
  - [   0.0008338678744622, -0.0012116404250264, -0.0011068615131080 ]
  - [   0.0008363542146981, -0.0010633277706802, -0.0007460070773959 ]
  - [   0.0008366966503672, -0.0012028226628900, -0.0011095162481070 ]
  - [   0.0005859726807103, -0.0011312174610794, -0.0009267330169678 ]
  - [   0.0008245923672803, -0.0009309903834946, -0.0009100432507694 ]
  - [   0.0005829104920849, -0.0011379208881408, -0.0009257271885872 ]
  - [   0.0008336129249074, -0.0013344620820135, -0.0009327996522188 ]
  - [   0.0006345013389364, -0.0011620273580775, -0.0009389934130013 ]
  - [   0.0006386934546754, -0.0010948996059597, -0.0008924324065447 ]
  - [   0.0007549694273621, -0.0011261613108218, -0.0009129429236054 ]
  - [   0.0004870911070611, -0.0011277641169727, -0.0009156218729913 ]
  - [   0.0005245771608315, -0.0009926884667948, -0.0011049914173782 ]
  - [   0.0005235184798948, -0.0012622916838154, -0.0007259240373969 ]
  - [   0.0008247615187429, -0.0009335758513771, -0.0009108521044254 ]
  - [   0.0008365970570594, -0.0013369789812714, -0.0009338771924376 ]
  - [   0.0005849106237292, -0.0011400752700865, -0.0009264941327274 ]
  - [   0.0004855706065428, -0.0011286861263216, -0.0009129722602665 ]
  - [   0.0005235602147877, -0.0012642955407500, -0.0007244963198900 ]
  - [   0.0005271510453895, -0.0009958373848349, -0.0011050635948777 ]
  - [   0.0006336526130326, -0.0011622727615759, -0.0009392676874995 ]
  - [   0.0007538130739704, -0.0011284892680123, -0.0009159701876342 ]
  - [   0.0006363155553117, -0.0010933517478406, -0.0008921688422561 ]
  - [   0.0024578473530710,  0.0008602631278336,  0.0002679899334908 ]
  - [   0.0017060075188056,  0.0008102531428449,  0.0002354457974434 ]
  - [   0.0016856899019331,  0.0008910145843402,  0.0002927500754595 ]
  - [   0.0018548810621724,  0.0008032828336582,  0.0002890117466450 ]
  - [   0.0017734462162480,  0.0008611453813501,  0.0002679517492652 ]
  - [   0.0018647522665560,  0.0008989630732685,  0.0002400153316557 ]
  - [   0.0029514364432544,  0.0011363707017154, -0.0001546256244183 ]
  - [   0.0029774834401906,  0.0005618070717901,  0.0006913156248629 ]
  - [   0.0017957828240469,  0.0008593380334787,  0.0002677645534277 ]
  - [   0.0018629846163094,  0.0008748392574489,  0.0002235635183752 ]
  - [   0.0017651448724791,  0.0008437964133918,  0.0002627633512020 ]
  - [   0.0018525123596191,  0.0008318573236465,  0.0003089746460319 ]
  - [   0.0018288800492883,  0.0008459761738777,  0.0002634134143591 ]
  - [   0.0018440280109644,  0.0008596736006439,  0.0002678604796529 ]
  - [   0.0018674924504012,  0.0008586444891989,  0.0002662008628249 ]
  - [   0.0017774035222828,  0.0008582640439272,  0.0002671703696251 ]
  - [   0.0018571577966213,  0.0008546682074666,  0.0002133687958121 ]
  - [   0.0018691464792937,  0.0008447146974504,  0.0003132997080684 ]
  - [   0.0029570739716291,  0.0005680536851287,  0.0006807800382376 ]
  - [   0.0029831388965249,  0.0011606430634856, -0.0001570088788867 ]
  - [   0.0017939868848771,  0.0008592994417995,  0.0002676621079445 ]
  - [   0.0017755459994078,  0.0008583203889430,  0.0002672495320439 ]
  - [   0.0018663113005459,  0.0008192139212042,  0.0002957335673273 ]
  - [   0.0018622628413141,  0.0008994834497571,  0.0002407357096672 ]
  - [   0.0016969186253846,  0.0008127591572702,  0.0002342551015317 ]
  - [   0.0024575665593147,  0.0008586272597313,  0.0002674129791558 ]
  - [   0.0017133024521172,  0.0008937139064074,  0.0002920092083514 ]
  - [   0.0040605948306620,  0.0033044544979930,  0.0026645897887647 ]
  - [  -0.0007018730393611,  0.0001297546550632,  0.0004184450954199 ]
  - [   0.0039363144896924, -0.0029661748558283, -0.0017700614407659 ]
  - [  -0.0008978080004454,  0.0002419212833047,  0.0003883298486471 ]
  - [  -0.0009041614830494,  0.0000127181410789,  0.0004591932520270 ]
  - [  -0.0011732371058315,  0.0001295143738389,  0.0004271082580090 ]
  - [  -0.0014343578368425,  0.0001502102240920,  0.0004117796197534 ]
  - [  -0.0008180681616068, -0.0000780439004302,  0.0004670545458794 ]
  - [  -0.0008221101015806,  0.0003244162071496,  0.0003790729679167 ]
  - [  -0.0009004180319607,  0.0001232349313796,  0.0005361363291740 ]
  - [  -0.0009006927721202,  0.0001335949636996,  0.0003104694187641 ]
  - [  -0.0011624780017883,  0.0001342147588730,  0.0004280493594706 ]
  - [  -0.0008962569991127,  0.0001289010979235,  0.0004181675612926 ]
  - [  -0.0010260336566716,  0.0000809766352177,  0.0003895517438650 ]
  - [  -0.0010236356174573,  0.0001643644645810,  0.0004448946565390 ]
  - [  -0.0008896150393412, -0.0000356975942850,  0.0006187409162521 ]
  - [  -0.0009496293496341,  0.0001295553520322,  0.0004224888980389 ]
  - [  -0.0008895109058358,  0.0002742254873738,  0.0002132225781679 ]
  - [  -0.0014342605136335,  0.0001135042402893,  0.0004438897594810 ]
  - [  -0.0008190646767616,  0.0001021488569677,  0.0002141296863556 ]
  - [  -0.0008181584998965,  0.0001500761136413,  0.0006251344457269 ]
  - [  -0.0008916978840716,  0.0002575595863163,  0.0002022441476583 ]
  - [  -0.0009506349451840,  0.0001199455000460,  0.0004161582328379 ]
  - [  -0.0008971237111837, -0.0000174306333065,  0.0006309384480119 ]
  - [  -0.0009500865126029,  0.0001101326197386,  0.0004078317433596 ]
  - [  -0.0009495662525296,  0.0001354529522359,  0.0004261247813702 ]
  - [  -0.0009713898762129,  0.0001234994269907,  0.0004175971262157 ]
  - [  -0.0014982358552516,  0.0001379256136715,  0.0002222037874162 ]
  - [  -0.0015195520827547,  0.0001544917467982,  0.0002338220365345 ]
  - [  -0.0015050130896270,  0.0001539653167129,  0.0002364446409047 ]
  - [  -0.0014498203527182,  0.0002881968393922,  0.0000188443809748 ]
  - [  -0.0014481613179669,  0.0000071669928730,  0.0004414813593030 ]
  - [  -0.0015076729469001,  0.0001560049131513,  0.0002346653491259 ]
  - [  -0.0019892291165888,  0.0001428900286555,  0.0002097850665450 ]
  - [  -0.0013740514405072,  0.0001765391789377,  0.0004383586347103 ]
  - [  -0.0013719878625125,  0.0001389519311488,  0.0000366917811334 ]
  - [  -0.0014430826995522, -0.0000014398247004,  0.0004352135583758 ]
  - [  -0.0014462963445112,  0.0003105425275862,  0.0000333511270583 ]
  - [  -0.0015105186030269,  0.0001481026411057,  0.0002314792945981 ]
  - [  -0.0014589878264815,  0.0001455449964851,  0.0002280808985233 ]
  - [  -0.0015837147366256,  0.0001904182136059,  0.0002616611309350 ]
  - [  -0.0015790145844221,  0.0001138867810369,  0.0002033137716353 ]
  - [  -0.0014529817271978,  0.0001584095880389,  0.0003512375988066 ]
  - [  -0.0017225497867912,  0.0001549278385937,  0.0002382989041507 ]
  - [  -0.0014638153370470,  0.0001526020932943,  0.0001198193058372 ]
  - [  -0.0019942314829677,  0.0001242253929377,  0.0002412959001958 ]
  - [  -0.0013766104821116,  0.0003532897680998,  0.0001930873841047 ]
  - [  -0.0013775818515569, -0.0000426745973527,  0.0002901884727180 ]
  - [  -0.0014572564978153,  0.0002588233910501,  0.0001941360533237 ]
  - [  -0.0017182992305607,  0.0001492025330663,  0.0002315128222108 ]
  - [  -0.0014495716895908,  0.0000322731211782,  0.0002659526653588 ]
  - [   0.0033637145534158,  0.0032441974617541,  0.0024216985329986 ]
  - [   0.0034836151171476, -0.0030254174489528, -0.0020093829371035 ]
  - [  -0.0012741640675813,  0.0001572116743773,  0.0002427804283798 ]
- atom:    1
  displacement:
    [  -0.0100000000000000,  0.0000000000000000,  0.0000000000000000 ]
  forces:
  - [   0.0268775895237923, -0.0011154753156006, -0.0009163287468255 ]
  - [   0.0004212534986436, -0.0011338056065142, -0.0009272657334805 ]
  - [   0.0004224106669426, -0.0011457647196949, -0.0009381817653775 ]
  - [   0.0005267454544082, -0.0011986987665296, -0.0010958947241306 ]
  - [   0.0007770144729875, -0.0011294484138489, -0.0009137853048742 ]
  - [   0.0005351057625376, -0.0010704374872148, -0.0007426789961755 ]
  - [   0.0005370733560994, -0.0012039779685438, -0.0011100997217000 ]
  - [   0.0005377592169680, -0.0010621803812683, -0.0007453118450940 ]
  - [   0.0007909240084700, -0.0011310866102576, -0.0009268969297409 ]
  - [   0.0005252523696981, -0.0013218638487160, -0.0009206403046846 ]
  - [   0.0007874690927565, -0.0011379054049030, -0.0009257905185223 ]
  - [   0.0005339570343494, -0.0009437876287848, -0.0009200740605593 ]
  - [   0.0007160878740251, -0.0010910495184362, -0.0008888407610357 ]
  - [   0.0007204354624264, -0.0011659513693303, -0.0009425808675587 ]
  - [   0.0005928853061050, -0.0011262658517808, -0.0009127887897193 ]
  - [   0.0008644683402963, -0.0011278158053756, -0.0009158630855381 ]
  - [   0.0008266575750895, -0.0012603988870978, -0.0007261037826538 ]
  - [   0.0008262415649369, -0.0009939103620127, -0.0011059399694204 ]
  - [   0.0005253717536107, -0.0013244964648038, -0.0009219287894666 ]
  - [   0.0005366721306928, -0.0009462246671319, -0.0009214743040502 ]
  - [   0.0007898188196123, -0.0011402032105252, -0.0009263660758734 ]
  - [   0.0008628573268652, -0.0011286952067167, -0.0009131398983300 ]
  - [   0.0008262522751465, -0.0009956681169569, -0.0011041951365769 ]
  - [   0.0008294425206259, -0.0012641225475818, -0.0007261335849762 ]
  - [   0.0007152314647101, -0.0010912574362010, -0.0008892039768398 ]
  - [   0.0005919022951275, -0.0011285918299109, -0.0009158682078123 ]
  - [   0.0007180754910223, -0.0011642565950751, -0.0009423806332052 ]
  - [   0.0012414046796039,  0.0008601449080743,  0.0002679070457816 ]
  - [   0.0019911197014153,  0.0008867965661921,  0.0002899551764131 ]
  - [   0.0019723470322788,  0.0008135345997289,  0.0002381401136518 ]
  - [   0.0018245077226311,  0.0008828302961774,  0.0002328488044441 ]
  - [   0.0019260983681306,  0.0008605993934907,  0.0002680872566998 ]
  - [   0.0018343889387324,  0.0008191230008379,  0.0002957112155855 ]
  - [   0.0007105000549927,  0.0005437894724309,  0.0006832988001406 ]
  - [   0.0007380874594674,  0.0011532923672348, -0.0001454264856875 ]
  - [   0.0019036697922274,  0.0008593168458901,  0.0002675978466868 ]
  - [   0.0018327101133764,  0.0008484767749906,  0.0003174454905093 ]
  - [   0.0019181334646419,  0.0008439715020359,  0.0002626879140735 ]
  - [   0.0018218492623419,  0.0008580400608480,  0.0002150605432689 ]
  - [   0.0018440512940288,  0.0008457493968308,  0.0002634963020682 ]
  - [   0.0018588770180941,  0.0008592586964369,  0.0002676998265088 ]
  - [   0.0018370596226305,  0.0008585741743445,  0.0002663857303560 ]
  - [   0.0019305967725813,  0.0008583241142333,  0.0002678493037820 ]
  - [   0.0018268921412528,  0.0008284975774586,  0.0003072475083172 ]
  - [   0.0018388379830867,  0.0008710925467312,  0.0002195257693529 ]
  - [   0.0007210933254100,  0.0011585832107812, -0.0001524332910776 ]
  - [   0.0007377535803244,  0.0005653691478074,  0.0006834552623332 ]
  - [   0.0019018114544451,  0.0008588121272624,  0.0002679373137653 ]
  - [   0.0019283257424831,  0.0008583520539105,  0.0002670539543033 ]
  - [   0.0018359688110650,  0.0008990254718810,  0.0002398882061243 ]
  - [   0.0018321366515011,  0.0008201685268432,  0.0002970155328512 ]
  - [   0.0019896221347153,  0.0008936836384237,  0.0002915142104030 ]
  - [   0.0012451778165996,  0.0008607651107013,  0.0002687238156796 ]
  - [   0.0020012641325593,  0.0008153086528182,  0.0002371720038354 ]
  - [  -0.0059016658924520, -0.0029697995632887, -0.0017643487080932 ]
  - [  -0.0012567874509841,  0.0001299530267715,  0.0004181591793895 ]
  - [  -0.0060489894822240,  0.0033203531056643,  0.0026782229542732 ]
  - [  -0.0010691210627556,  0.0000206911936402,  0.0004615839570761 ]
  - [  -0.0010754615068436,  0.0002344120293856,  0.0003861170262098 ]
  - [  -0.0008207638747990,  0.0001299660652876,  0.0004268810153008 ]
  - [  -0.0005296505987644,  0.0001573385670781,  0.0004079416394234 ]
  - [  -0.0011599343270063,  0.0003229239955544,  0.0003766734153032 ]
  - [  -0.0011662044562399, -0.0000780897680670,  0.0004703425802290 ]
  - [  -0.0010715960524976,  0.0001186830922961,  0.0003031305968761 ]