phonopy:
  version: "2.37.1"
  frequency_unit_conversion_factor: 15.633302
  symmetry_tolerance: 1.00000e-05

space_group:
  type: "P1"
  number: 1
  Hall_symbol: "P 1"

primitive_matrix:
- [  0.000000000000000,  1.000000000000000,  1.000000000000000 ]
- [ -1.000000000000000,  0.000000000000000, -0.000000000000000 ]
- [  0.000000000000000,  0.000000000000000,  1.000000000000000 ]

supercell_matrix:
- [   2,   0,   0 ]
- [   0,   3,   0 ]
- [   0,   0,   1 ]

primitive_cell:
  lattice:
  - [     1.825470166492084,    -4.009178738590203,     0.000000000000000 ] # a
  - [     5.313939359568440,     0.000000000000000,     0.000000000000000 ] # b
  - [     1.928141244806457,    -1.541730483352233,    12.197946160427161 ] # c
  points:
  - symbol: Li # 1
    coordinates: [  0.812290455841921,  0.144466464810793,  0.059897478927941 ]
    mass: 6.940000
  - symbol: Li # 2
    coordinates: [  0.816305113398968,  0.623686909687830,  0.571105783491930 ]
    mass: 6.940000
  - symbol: Li # 3
    coordinates: [  0.145170775362803,  0.312834140685212,  0.225865778178084 ]
    mass: 6.940000
  - symbol: Li # 4
    coordinates: [  0.812509797664216,  0.891923853779894,  0.311733205417425 ]
    mass: 6.940000
  - symbol: Li # 5
    coordinates: [  0.146257344081892,  0.798219688574671,  0.736842073503503 ]
    mass: 6.940000
  - symbol: Li # 6
    coordinates: [  0.478942130612041,  0.970492398822786,  0.900048469694301 ]
    mass: 6.940000
  - symbol: Sn # 7
    coordinates: [  0.813552135306028,  0.384480391866903,  0.816418093318764 ]
    mass: 118.710000
  - symbol: Sn # 8
    coordinates: [  0.470347320753217,  0.740443266299072,  0.147839704771202 ]
    mass: 118.710000
  - symbol: Sn # 9
    coordinates: [  0.154660751358906,  0.038907491042056,  0.479722475410623 ]
    mass: 118.710000
  - symbol: Sn # 10
    coordinates: [  0.486152392951456,  0.469878653958211,  0.386223455624627 ]
    mass: 118.710000
  - symbol: Sn # 11
    coordinates: [  0.482048213714982,  0.208164997418904,  0.655343847078231 ]
    mass: 118.710000
  - symbol: Sn # 12
    coordinates: [  0.141946841680632,  0.558973443780112,  0.985764962118289 ]
    mass: 118.710000
  reciprocal_lattice: # without 2pi
  - [     0.000000000000000,    -0.249427642218726,    -0.031525815439885 ] # a*
  - [     0.188184307786533,     0.085684590801526,    -0.018916576351589 ] # b*
  - [     0.000000000000000,    -0.000000000000000,     0.081981014414068 ] # c*

unit_cell:
  lattice:
  - [     5.313939359568440,     0.000000000000000,     0.000000000000000 ] # a
  - [    -1.825470166492084,     4.009178738590204,     0.000000000000000 ] # b
  - [    -3.385798114761984,    -1.541730483352233,    12.197946160427161 ] # c
  points:
  - symbol: Li # 1
    coordinates: [  0.204363943738734,  0.187709544158079,  0.059897478927941 ]
    mass: 6.940000
    reduced_to: 1
  - symbol: Li # 2
    coordinates: [  0.194792693179760,  0.183694886601032,  0.571105783491930 ]
    mass: 6.940000
    reduced_to: 2
  - symbol: Li # 3
    coordinates: [  0.538699918863296,  0.854829224637197,  0.225865778178084 ]
    mass: 6.940000
    reduced_to: 3
  - symbol: Li # 4
    coordinates: [  0.203657059197319,  0.187490202335784,  0.311733205417425 ]
    mass: 6.940000
    reduced_to: 4
  - symbol: Li # 5
    coordinates: [  0.535061762078173,  0.853742655918108,  0.736842073503503 ]
    mass: 6.940000
    reduced_to: 5
  - symbol: Li # 6
    coordinates: [  0.870540868517087,  0.521057869387959,  0.900048469694301 ]
    mass: 6.940000
    reduced_to: 6
  - symbol: Sn # 7
    coordinates: [  0.200898485185667,  0.186447864693972,  0.816418093318764 ]
    mass: 118.710000
    reduced_to: 7
  - symbol: Sn # 8
    coordinates: [  0.888282971070275,  0.529652679246783,  0.147839704771202 ]
    mass: 118.710000
    reduced_to: 8
  - symbol: Sn # 9
    coordinates: [  0.518629966452679,  0.845339248641094,  0.479722475410623 ]
    mass: 118.710000
    reduced_to: 9
  - symbol: Sn # 10
    coordinates: [  0.856102109582838,  0.513847607048544,  0.386223455624627 ]
    mass: 118.710000
    reduced_to: 10
  - symbol: Sn # 11
    coordinates: [  0.863508844497135,  0.517951786285018,  0.655343847078231 ]
    mass: 118.710000
    reduced_to: 11
  - symbol: Sn # 12
    coordinates: [  0.544738405898402,  0.858053158319368,  0.985764962118289 ]
    mass: 118.710000
    reduced_to: 12

supercell:
  lattice:
  - [    10.627878719136881,     0.000000000000000,     0.000000000000000 ] # a
  - [    -5.476410499476252,    12.027536215770610,     0.000000000000000 ] # b
  - [    -3.385798114761984,    -1.541730483352233,    12.197946160427161 ] # c
  points:
  - symbol: Li # 1
    coordinates: [  0.102181971869367,  0.062569848052693,  0.059897478927941 ]
    mass: 6.940000
    reduced_to: 1
  - symbol: Li # 2
    coordinates: [  0.602181971869367,  0.062569848052693,  0.059897478927941 ]
    mass: 6.940000
    reduced_to: 1
  - symbol: Li # 3
    coordinates: [  0.102181971869367,  0.395903181386026,  0.059897478927941 ]
    mass: 6.940000
    reduced_to: 1
  - symbol: Li # 4
    coordinates: [  0.602181971869367,  0.395903181386026,  0.059897478927941 ]
    mass: 6.940000
    reduced_to: 1
  - symbol: Li # 5
    coordinates: [  0.102181971869367,  0.729236514719360,  0.059897478927941 ]
    mass: 6.940000
    reduced_to: 1
  - symbol: Li # 6
    coordinates: [  0.602181971869367,  0.729236514719360,  0.059897478927941 ]
    mass: 6.940000
    reduced_to: 1
  - symbol: Li # 7
    coordinates: [  0.097396346589880,  0.061231628867011,  0.571105783491930 ]
    mass: 6.940000
    reduced_to: 7
  - symbol: Li # 8
    coordinates: [  0.597396346589880,  0.061231628867011,  0.571105783491930 ]
    mass: 6.940000
    reduced_to: 7
  - symbol: Li # 9
    coordinates: [  0.097396346589880,  0.394564962200344,  0.571105783491930 ]
    mass: 6.940000
    reduced_to: 7
  - symbol: Li # 10
    coordinates: [  0.597396346589880,  0.394564962200344,  0.571105783491930 ]
    mass: 6.940000
    reduced_to: 7
  - symbol: Li # 11
    coordinates: [  0.097396346589880,  0.727898295533677,  0.571105783491930 ]
    mass: 6.940000
    reduced_to: 7
  - symbol: Li # 12
    coordinates: [  0.597396346589880,  0.727898295533677,  0.571105783491930 ]
    mass: 6.940000
    reduced_to: 7
  - symbol: Li # 13
    coordinates: [  0.269349959431648,  0.284943074879066,  0.225865778178084 ]
    mass: 6.940000
    reduced_to: 13
  - symbol: Li # 14
    coordinates: [  0.769349959431648,  0.284943074879066,  0.225865778178084 ]
    mass: 6.940000
    reduced_to: 13
  - symbol: Li # 15
    coordinates: [  0.269349959431648,  0.618276408212399,  0.225865778178084 ]
    mass: 6.940000
    reduced_to: 13
  - symbol: Li # 16
    coordinates: [  0.769349959431648,  0.618276408212399,  0.225865778178084 ]
    mass: 6.940000
    reduced_to: 13
  - symbol: Li # 17
    coordinates: [  0.269349959431648,  0.951609741545732,  0.225865778178084 ]
    mass: 6.940000
    reduced_to: 13
  - symbol: Li # 18
    coordinates: [  0.769349959431648,  0.951609741545732,  0.225865778178084 ]
    mass: 6.940000
    reduced_to: 13
  - symbol: Li # 19
    coordinates: [  0.101828529598659,  0.062496734111928,  0.311733205417425 ]
    mass: 6.940000
    reduced_to: 19
  - symbol: Li # 20
    coordinates: [  0.601828529598660,  0.062496734111928,  0.311733205417425 ]
    mass: 6.940000
    reduced_to: 19
  - symbol: Li # 21
    coordinates: [  0.101828529598659,  0.395830067445261,  0.311733205417425 ]
    mass: 6.940000
    reduced_to: 19
  - symbol: Li # 22
    coordinates: [  0.601828529598660,  0.395830067445261,  0.311733205417425 ]
    mass: 6.940000
    reduced_to: 19
  - symbol: Li # 23
    coordinates: [  0.101828529598659,  0.729163400778595,  0.311733205417425 ]
    mass: 6.940000
    reduced_to: 19
  - symbol: Li # 24
    coordinates: [  0.601828529598660,  0.729163400778595,  0.311733205417425 ]
    mass: 6.940000
    reduced_to: 19
  - symbol: Li # 25
    coordinates: [  0.267530881039087,  0.284580885306036,  0.736842073503503 ]
    mass: 6.940000
    reduced_to: 25
  - symbol: Li # 26
    coordinates: [  0.767530881039087,  0.284580885306036,  0.736842073503503 ]
    mass: 6.940000
    reduced_to: 25
  - symbol: Li # 27
    coordinates: [  0.267530881039087,  0.617914218639369,  0.736842073503503 ]
    mass: 6.940000
    reduced_to: 25
  - symbol: Li # 28
    coordinates: [  0.767530881039087,  0.617914218639369,  0.736842073503503 ]
    mass: 6.940000
    reduced_to: 25
  - symbol: Li # 29
    coordinates: [  0.267530881039087,  0.951247551972703,  0.736842073503503 ]
    mass: 6.940000
    reduced_to: 25
  - symbol: Li # 30
    coordinates: [  0.767530881039087,  0.951247551972703,  0.736842073503503 ]
    mass: 6.940000
    reduced_to: 25
  - symbol: Li # 31
    coordinates: [  0.435270434258543,  0.173685956462653,  0.900048469694301 ]
    mass: 6.940000
    reduced_to: 31
  - symbol: Li # 32
    coordinates: [  0.935270434258543,  0.173685956462653,  0.900048469694301 ]
    mass: 6.940000
    reduced_to: 31
  - symbol: Li # 33
    coordinates: [  0.435270434258543,  0.507019289795986,  0.900048469694301 ]
    mass: 6.940000
    reduced_to: 31
  - symbol: Li # 34
    coordinates: [  0.935270434258543,  0.507019289795986,  0.900048469694301 ]
    mass: 6.940000
    reduced_to: 31
  - symbol: Li # 35
    coordinates: [  0.435270434258543,  0.840352623129320,  0.900048469694301 ]
    mass: 6.940000
    reduced_to: 31
  - symbol: Li # 36
    coordinates: [  0.935270434258543,  0.840352623129320,  0.900048469694301 ]
    mass: 6.940000
    reduced_to: 31
  - symbol: Sn # 37
    coordinates: [  0.100449242592833,  0.062149288231324,  0.816418093318764 ]
    mass: 118.710000
    reduced_to: 37
  - symbol: Sn # 38
    coordinates: [  0.600449242592833,  0.062149288231324,  0.816418093318764 ]
    mass: 118.710000
    reduced_to: 37
  - symbol: Sn # 39
    coordinates: [  0.100449242592833,  0.395482621564657,  0.816418093318764 ]
    mass: 118.710000
    reduced_to: 37
  - symbol: Sn # 40
    coordinates: [  0.600449242592833,  0.395482621564657,  0.816418093318764 ]
    mass: 118.710000
    reduced_to: 37
  - symbol: Sn # 41
    coordinates: [  0.100449242592833,  0.728815954897991,  0.816418093318764 ]
    mass: 118.710000
    reduced_to: 37
  - symbol: Sn # 42
    coordinates: [  0.600449242592833,  0.728815954897991,  0.816418093318764 ]
    mass: 118.710000
    reduced_to: 37
  - symbol: Sn # 43
    coordinates: [  0.444141485535137,  0.176550893082261,  0.147839704771202 ]
    mass: 118.710000
    reduced_to: 43
  - symbol: Sn # 44
    coordinates: [  0.944141485535137,  0.176550893082261,  0.147839704771202 ]
    mass: 118.710000
    reduced_to: 43
  - symbol: Sn # 45
    coordinates: [  0.444141485535137,  0.509884226415594,  0.147839704771202 ]
    mass: 118.710000
    reduced_to: 43
  - symbol: Sn # 46
    coordinates: [  0.944141485535137,  0.509884226415594,  0.147839704771202 ]
    mass: 118.710000
    reduced_to: 43
  - symbol: Sn # 47
    coordinates: [  0.444141485535137,  0.843217559748928,  0.147839704771202 ]
    mass: 118.710000
    reduced_to: 43
  - symbol: Sn # 48
    coordinates: [  0.944141485535137,  0.843217559748928,  0.147839704771202 ]
    mass: 118.710000
    reduced_to: 43
  - symbol: Sn # 49
    coordinates: [  0.259314983226340,  0.281779749547031,  0.479722475410623 ]
    mass: 118.710000
    reduced_to: 49
  - symbol: Sn # 50
    coordinates: [  0.759314983226340,  0.281779749547031,  0.479722475410623 ]
    mass: 118.710000
    reduced_to: 49
  - symbol: Sn # 51
    coordinates: [  0.259314983226340,  0.615113082880365,  0.479722475410623 ]
    mass: 118.710000
    reduced_to: 49
  - symbol: Sn # 52
    coordinates: [  0.759314983226340,  0.615113082880365,  0.479722475410623 ]
    mass: 118.710000
    reduced_to: 49
  - symbol: Sn # 53
    coordinates: [  0.259314983226340,  0.948446416213698,  0.479722475410623 ]
    mass: 118.710000
    reduced_to: 49
  - symbol: Sn # 54
    coordinates: [  0.759314983226340,  0.948446416213698,  0.479722475410623 ]
    mass: 118.710000
    reduced_to: 49
  - symbol: Sn # 55
    coordinates: [  0.428051054791419,  0.171282535682848,  0.386223455624627 ]
    mass: 118.710000
    reduced_to: 55
  - symbol: Sn # 56
    coordinates: [  0.928051054791419,  0.171282535682848,  0.386223455624627 ]
    mass: 118.710000
    reduced_to: 55
  - symbol: Sn # 57
    coordinates: [  0.428051054791419,  0.504615869016181,  0.386223455624627 ]
    mass: 118.710000
    reduced_to: 55
  - symbol: Sn # 58
    coordinates: [  0.928051054791419,  0.504615869016181,  0.386223455624627 ]
    mass: 118.710000
    reduced_to: 55
  - symbol: Sn # 59
    coordinates: [  0.428051054791419,  0.837949202349515,  0.386223455624627 ]
    mass: 118.710000
    reduced_to: 55
  - symbol: Sn # 60
    coordinates: [  0.928051054791419,  0.837949202349515,  0.386223455624627 ]
    mass: 118.710000
    reduced_to: 55
  - symbol: Sn # 61
    coordinates: [  0.431754422248568,  0.172650595428339,  0.655343847078231 ]
    mass: 118.710000
    reduced_to: 61
  - symbol: Sn # 62
    coordinates: [  0.931754422248568,  0.172650595428339,  0.655343847078231 ]
    mass: 118.710000
    reduced_to: 61
  - symbol: Sn # 63
    coordinates: [  0.431754422248568,  0.505983928761673,  0.655343847078231 ]
    mass: 118.710000
    reduced_to: 61
  - symbol: Sn # 64
    coordinates: [  0.931754422248568,  0.505983928761673,  0.655343847078231 ]
    mass: 118.710000
    reduced_to: 61
  - symbol: Sn # 65
    coordinates: [  0.431754422248568,  0.839317262095006,  0.655343847078231 ]
    mass: 118.710000
    reduced_to: 61
  - symbol: Sn # 66
    coordinates: [  0.931754422248568,  0.839317262095006,  0.655343847078231 ]
    mass: 118.710000
    reduced_to: 61
  - symbol: Sn # 67
    coordinates: [  0.272369202949201,  0.286017719439789,  0.985764962118289 ]
    mass: 118.710000
    reduced_to: 67
  - symbol: Sn # 68
    coordinates: [  0.772369202949201,  0.286017719439789,  0.985764962118289 ]
    mass: 118.710000
    reduced_to: 67
  - symbol: Sn # 69
    coordinates: [  0.272369202949201,  0.619351052773123,  0.985764962118289 ]
    mass: 118.710000
    reduced_to: 67
  - symbol: Sn # 70
    coordinates: [  0.772369202949201,  0.619351052773123,  0.985764962118289 ]
    mass: 118.710000
    reduced_to: 67
  - symbol: Sn # 71
    coordinates: [  0.272369202949201,  0.952684386106456,  0.985764962118289 ]
    mass: 118.710000
    reduced_to: 67
  - symbol: Sn # 72
    coordinates: [  0.772369202949201,  0.952684386106456,  0.985764962118289 ]
    mass: 118.710000
    reduced_to: 67

displacements:
- atom:    1
  displacement:
    [   0.0100000000000000,  0.0000000000000000,  0.0000000000000000 ]
  forces:
  - [  -0.0013922564685345,  0.0067671705037355,  0.0099189477041364 ]
  - [   0.0178697835654020,  0.0088134603574872,  0.0072859032079577 ]
  - [   0.0183048155158758,  0.0088182119652629,  0.0074194893240929 ]
  - [   0.0183616410940886,  0.0086382525041699,  0.0073218615725636 ]
  - [   0.0183055233210325,  0.0084703853353858,  0.0073611596599221 ]
  - [   0.0183598175644875,  0.0085230218246579,  0.0073841670528054 ]
  - [  -0.0183938853442669, -0.0097026135772467,  0.0118673071265221 ]
  - [  -0.0182703100144863, -0.0096369478851557,  0.0115634202957153 ]
  - [  -0.0182949416339397, -0.0096676377579570,  0.0115373432636261 ]
  - [  -0.0182839259505272, -0.0096399020403624,  0.0115404613316059 ]
  - [  -0.0183015055954456, -0.0096347555518150,  0.0115408413112164 ]
  - [  -0.0182895958423615, -0.0096492618322372,  0.0115544311702251 ]
  - [   0.0188846103847027,  0.0096027031540871, -0.0225320979952812 ]
  - [   0.0174202173948288,  0.0096513330936432, -0.0224542357027531 ]
  - [   0.0191565826535225,  0.0096293836832047, -0.0224768370389938 ]
  - [   0.0190638713538647,  0.0093547478318214, -0.0223536696285009 ]
  - [   0.0199599564075470,  0.0088893175125122, -0.0214064847677946 ]
  - [   0.0190687701106071,  0.0097148660570383, -0.0224359761923552 ]
  - [  -0.0206846017390490, -0.0087584387511015, -0.0064776986837387 ]
  - [  -0.0208746939897537, -0.0087176039814949, -0.0059540756046772 ]
  - [  -0.0208155754953623, -0.0088991615921259, -0.0060860179364681 ]
  - [  -0.0208725966513157, -0.0088008744642138, -0.0059174522757530 ]
  - [  -0.0209942404180765, -0.0088085336610675, -0.0059809871017933 ]
  - [  -0.0209614709019661, -0.0088402396067977, -0.0059358477592468 ]
  - [  -0.0064452206715941, -0.0035910508595407,  0.0110958497971296 ]
  - [  -0.0065807942301035, -0.0033477880060673,  0.0108341770246625 ]
  - [  -0.0064170891419053, -0.0035178447142243,  0.0110397748649120 ]
  - [  -0.0064437165856361, -0.0035074562765658,  0.0110171493142843 ]
  - [  -0.0064740926027298, -0.0035660839639604,  0.0112761780619621 ]
  - [  -0.0065125133842230, -0.0036482335999608,  0.0112639032304287 ]
  - [  -0.0068617742508650, -0.0028808750212193,  0.0130638163536787 ]
  - [  -0.0056212609633803, -0.0037524914368987,  0.0137182306498289 ]
  - [  -0.0066817458719015, -0.0030388764571398,  0.0130350012332201 ]
  - [  -0.0065873544663191, -0.0027832873165607,  0.0129036400467157 ]
  - [  -0.0083712982013822, -0.0027784733101726,  0.0129209123551846 ]
  - [  -0.0069222347810864, -0.0026221768930554,  0.0127634890377522 ]
  - [   0.0069172708317637,  0.0029833815060556,  0.0060757547616959 ]
  - [   0.0060830172151327,  0.0027618529275060,  0.0084841828793287 ]
  - [   0.0060006026178598,  0.0027248994447291,  0.0085679739713669 ]
  - [   0.0061298059299588,  0.0027246382087469,  0.0085623580962420 ]
  - [   0.0059802145697176,  0.0027678310871124,  0.0085242502391338 ]
  - [   0.0059712389484048,  0.0028367824852467,  0.0085921548306942 ]
  - [   0.0266350284218788,  0.0125076975673437, -0.0041845105588436 ]
  - [   0.0286413896828890,  0.0088197719305754, -0.0067162252962589 ]
  - [   0.0235937293618917,  0.0112642627209425, -0.0051338896155357 ]
  - [   0.0236747246235609,  0.0112889017909765, -0.0050673652440310 ]
  - [   0.0236507393419743,  0.0114186257123947, -0.0051203574985266 ]
  - [   0.0241055916994810,  0.0135504901409149, -0.0057902913540602 ]
  - [  -0.0182286240160465, -0.0086279567331076, -0.0033579319715500 ]
  - [  -0.0181172527372837, -0.0086364578455687, -0.0033046118915081 ]
  - [  -0.0181591734290123, -0.0086526889353991, -0.0033407844603062 ]
  - [  -0.0181446298956871, -0.0086382180452347, -0.0033001042902470 ]
  - [  -0.0181296803057194, -0.0086685046553612, -0.0033264644443989 ]
  - [  -0.0181296467781067, -0.0085996501147747, -0.0033656097948551 ]
  - [  -0.0391168147325516, -0.0176906585693359, -0.0031897500157356 ]
  - [  -0.0392721891403198, -0.0176349580287933, -0.0030711106956005 ]
  - [  -0.0391783341765404, -0.0177103467285633, -0.0032786279916763 ]
  - [  -0.0391103178262711, -0.0176626835018396, -0.0032788477838039 ]
  - [  -0.0393448770046234, -0.0175773669034243, -0.0033997781574726 ]
  - [  -0.0391447208821774, -0.0177733544260263, -0.0031468495726585 ]
  - [   0.0030807442963123,  0.0004905946552753, -0.0141827315092087 ]
  - [   0.0030269101262093,  0.0005145091563463, -0.0142880082130432 ]
  - [   0.0030511803925037,  0.0006181858479977, -0.0142228826880455 ]
  - [   0.0030203312635422,  0.0004624351859093, -0.0143861770629883 ]
  - [   0.0030945800244808,  0.0005282536149025, -0.0142116397619247 ]
  - [   0.0030215010046959,  0.0006538517773151, -0.0141917094588280 ]
  - [   0.0403430387377739,  0.0207250658422709,  0.0023510046303272 ]
  - [   0.0392482504248619,  0.0181981995701790,  0.0029765777289867 ]
  - [   0.0394010767340660,  0.0179948396980762,  0.0032060332596302 ]
  - [   0.0393152087926865,  0.0179183483123779,  0.0030225589871407 ]
  - [   0.0458196923136711,  0.0161336604505777,  0.0008020661771297 ]
  - [   0.0458634905517101,  0.0209035016596317,  0.0044753476977348 ]
- atom:    1
  displacement:
    [  -0.0100000000000000,  0.0000000000000000,  0.0000000000000000 ]
  forces:
  - [   0.0381477586925030,  0.0108656175434589,  0.0046432875096798 ]
  - [   0.0188193321228027,  0.0087869558483362,  0.0072427485138178 ]
  - [   0.0183799993246794,  0.0087745524942875,  0.0071101915091276 ]
  - [   0.0183279309421778,  0.0089555364102125,  0.0072107147425413 ]
  - [   0.0183808747678995,  0.0091273616999388,  0.0071706119924784 ]
  - [   0.0183258857578039,  0.0090750912204385,  0.0071439286693931 ]
  - [  -0.0181871764361858, -0.0095912180840969,  0.0112230814993382 ]
  - [  -0.0183101203292608, -0.0096553545445204,  0.0115295164287090 ]
  - [  -0.0182856712490320, -0.0096239531412721,  0.0115560516715050 ]
  - [  -0.0182971134781837, -0.0096530178561807,  0.0115521587431431 ]
  - [  -0.0182807687669992, -0.0096575422212481,  0.0115523636341095 ]
  - [  -0.0182915423065424, -0.0096427639946342,  0.0115377418696880 ]
  - [   0.0193990804255009,  0.0096721984446049, -0.0223987158387899 ]
  - [   0.0208565108478069,  0.0096158720552921, -0.0224854070693254 ]
  - [   0.0191225968301296,  0.0096459612250328, -0.0224552266299725 ]
  - [   0.0192174315452576,  0.0099185816943645, -0.0225769914686680 ]
  - [   0.0183279663324356,  0.0103740766644478, -0.0235110204666853 ]
  - [   0.0192191749811172,  0.0095615778118372, -0.0224981736391783 ]
  - [  -0.0212882496416569, -0.0088966544717550, -0.0055197700858116 ]
  - [  -0.0210983604192734, -0.0089348014444113, -0.0060395747423172 ]
  - [  -0.0211606472730637, -0.0087570575997233, -0.0059061907231808 ]
  - [  -0.0210994612425566, -0.0088561270385981, -0.0060743018984795 ]
  - [  -0.0209805928170681, -0.0088458564132452, -0.0060109365731478 ]
  - [  -0.0210129339247942, -0.0088143777102232, -0.0060568843036890 ]
  - [  -0.0063971746712923, -0.0034420029260218,  0.0109561895951629 ]
  - [  -0.0062616607174277, -0.0036862529814243,  0.0112184938043356 ]
  - [  -0.0064248777925968, -0.0035171518102288,  0.0110128736123443 ]
  - [  -0.0063988408073783, -0.0035296981222928,  0.0110350903123617 ]
  - [  -0.0063676321879029, -0.0034715430811048,  0.0107749328017235 ]
  - [  -0.0063300784677267, -0.0033860430121422,  0.0107871163636446 ]
  - [  -0.0063437838107347, -0.0026595490053296,  0.0127525655552745 ]
  - [  -0.0075916508212686, -0.0017710602842271,  0.0120828533545136 ]
  - [  -0.0065145501866937, -0.0024955119006336,  0.0127752069383860 ]
  - [  -0.0066092996858060, -0.0027541276067495,  0.0129080684855580 ]
  - [  -0.0048253480345011, -0.0027538782451302,  0.0128971897065639 ]
  - [  -0.0062720850110054, -0.0029111644253135,  0.0130512639880180 ]
  - [   0.0051513314247131,  0.0025194408372045,  0.0109286233782768 ]
  - [   0.0060010505840182,  0.0027428222820163,  0.0085188876837492 ]
  - [   0.0060841962695122,  0.0027804845012724,  0.0084321275353432 ]
  - [   0.0059538958594203,  0.0027791061438620,  0.0084392819553614 ]
  - [   0.0061033749952912,  0.0027377642691135,  0.0084775909781456 ]
  - [   0.0061179324984550,  0.0026671104133129,  0.0084097161889076 ]
  - [   0.0207512341439724,  0.0101765859872103, -0.0059437621384859 ]
  - [   0.0184295549988747,  0.0139018036425114, -0.0033986568450928 ]
  - [   0.0236521344631910,  0.0113469744101167, -0.0050535928457975 ]
  - [   0.0235726777464151,  0.0113259572535753, -0.0051204077899456 ]
  - [   0.0235985703766346,  0.0111999586224556, -0.0050682509317994 ]
  - [   0.0231600292026997,  0.0090744663029909, -0.0044033080339432 ]
  - [  -0.0180798731744289, -0.0086464472115040, -0.0032418668270111 ]
  - [  -0.0181936994194984, -0.0086371190845966, -0.0032934658229351 ]
  - [  -0.0181509740650654, -0.0086185839027166, -0.0032557509839535 ]
  - [  -0.0181651934981346, -0.0086333975195885, -0.0032956190407276 ]
  - [  -0.0181826762855053, -0.0086013767868280, -0.0032736733555794 ]
  - [  -0.0181820988655090, -0.0086722578853369, -0.0032342150807381 ]
  - [  -0.0391469448804855, -0.0177008733153343, -0.0034229531884193 ]
  - [  -0.0389888212084770, -0.0177595801651478, -0.0035426355898380 ]
  - [  -0.0390842631459236, -0.0176803767681122, -0.0033286735415459 ]
  - [  -0.0391514524817467, -0.0177292469888926, -0.0033289678394794 ]
  - [  -0.0389187708497047, -0.0178151223808527, -0.0032057575881481 ]
  - [  -0.0391181521117687, -0.0176161415874958, -0.0034617856144905 ]
  - [   0.0030380040407181,  0.0005864258855581, -0.0143538080155849 ]
  - [   0.0030909441411495,  0.0005645882338285, -0.0142481997609138 ]
  - [   0.0030669122934341,  0.0004578866064548, -0.0143157579004765 ]
  - [   0.0030980482697487,  0.0006144698709249, -0.0141551233828068 ]
  - [   0.0030229650437832,  0.0005480591207743, -0.0143269523978233 ]
  - [   0.0030997171998024,  0.0004231650382280, -0.0143442340195179 ]
  - [   0.0383842922747135,  0.0153874419629574,  0.0040201544761658 ]
  - [   0.0395053140819073,  0.0179130490869284,  0.0033960230648518 ]
  - [   0.0393478721380234,  0.0181177221238613,  0.0031586103141308 ]
  - [   0.0394379124045372,  0.0181970261037350,  0.0033444352447987 ]
  - [   0.0331201292574406,  0.0198784843087196,  0.0054866150021553 ]
  - [   0.0326798446476460,  0.0151029899716377,  0.0018143318593502 ]
- atom:    1
  displacement:
    [  -0.0041438911903344,  0.0091009980662930,  0.0000000000000000 ]
  forces:
  - [   0.0246678739786148, -0.0050520538352430,  0.0072460863739252 ]
  - [   0.0185542553663254,  0.0091817947104573,  0.0074989842250943 ]
  - [   0.0180591568350792,  0.0089966831728816,  0.0071933735162020 ]
  - [   0.0180831942707300,  0.0088040847331285,  0.0071053607389331 ]
  - [   0.0183770228177309,  0.0091467602178454,  0.0073348786681890 ]
  - [   0.0181946847587824,  0.0088542923331261,  0.0071919085457921 ]
  - [  -0.0182987060397863, -0.0096303839236498,  0.0115463808178902 ]
  - [  -0.0183058828115463, -0.0096410755068064,  0.0115363150835037 ]
  - [  -0.0182775706052780, -0.0096358433365822,  0.0115546174347401 ]
  - [  -0.0182799026370049, -0.0096529889851809,  0.0115612372756004 ]
  - [  -0.0183070339262486, -0.0096477391198277,  0.0115387663245201 ]
  - [  -0.0182853806763887, -0.0096442941576242,  0.0115414187312126 ]
  - [   0.0194292142987251,  0.0110246576368809, -0.0211000051349401 ]
  - [   0.0198522172868252,  0.0093089640140533, -0.0227535311132669 ]
  - [   0.0191221982240677,  0.0096723120659590, -0.0224659070372581 ]
  - [   0.0189371444284916,  0.0088661946356297, -0.0221880711615086 ]
  - [   0.0179323330521584,  0.0103180482983589, -0.0238033924251795 ]
  - [   0.0192415267229080,  0.0094121843576431, -0.0224583558738232 ]
  - [  -0.0210459865629673, -0.0086978664621711, -0.0060011744499207 ]
  - [  -0.0209973156452179, -0.0088820923119783, -0.0059555582702160 ]
  - [  -0.0211933813989162, -0.0087648574262857, -0.0058721639215946 ]
  - [  -0.0209436826407909, -0.0088839503005147, -0.0060153547674417 ]
  - [  -0.0209006015211344, -0.0086291804909706, -0.0061189569532871 ]
  - [  -0.0210139807313681, -0.0087331049144268, -0.0060166120529175 ]
  - [  -0.0064793676137924, -0.0034253746271133,  0.0112519850954413 ]
  - [  -0.0062008607201278, -0.0037350491620600,  0.0112334415316582 ]
  - [  -0.0064227785915136, -0.0035368413664401,  0.0110229738056660 ]
  - [  -0.0064028017222881, -0.0038205608725548,  0.0108197070658207 ]
  - [  -0.0064432863146067, -0.0034144888631999,  0.0108077395707369 ]
  - [  -0.0065018124878407, -0.0033450094051659,  0.0110275018960238 ]
  - [  -0.0065947994589806, -0.0027624657377601,  0.0129117639735341 ]
  - [  -0.0079223783686757, -0.0019713714718819,  0.0117326220497489 ]
  - [  -0.0068193729966879, -0.0036015410441905,  0.0132016483694315 ]
  - [  -0.0066166999749839, -0.0027270540595055,  0.0129064181819558 ]
  - [  -0.0058697368949652, -0.0030784597620368,  0.0126053076237440 ]
  - [  -0.0063339807093143, -0.0012786015868187,  0.0140584576874971 ]
  - [   0.0058816773816943,  0.0030964696779847,  0.0085119232535362 ]
  - [   0.0060127852484584,  0.0026044500991702,  0.0086213797330856 ]
  - [   0.0060275108553469,  0.0027043195441365,  0.0084447953850031 ]
  - [   0.0060472898185253,  0.0028730705380440,  0.0084677599370480 ]
  - [   0.0060905395075679,  0.0027359984815121,  0.0085582919418812 ]
  - [   0.0061075002886355,  0.0026942640542984,  0.0084138102829456 ]
  - [   0.0234530530869961,  0.0116360904648900, -0.0051107574254274 ]
  - [   0.0198683347553015,  0.0130450297147036, -0.0039274487644434 ]
  - [   0.0236802324652672,  0.0112494062632322, -0.0049909800291061 ]
  - [   0.0235645584762096,  0.0114475768059492, -0.0050934124737978 ]
  - [   0.0236324407160282,  0.0112345321103930, -0.0051846252754331 ]
  - [   0.0247178524732590,  0.0151507873088121, -0.0062168370932341 ]
  - [  -0.0180739574134350, -0.0085858702659607, -0.0032512098550797 ]
  - [  -0.0182048641145229, -0.0086242780089378, -0.0032455138862133 ]
  - [  -0.0181616581976414, -0.0086163580417633, -0.0032946616411209 ]
  - [  -0.0181437656283379, -0.0085924006998539, -0.0033662281930447 ]
  - [  -0.0182442553341389, -0.0086696986109018, -0.0033525489270687 ]
  - [  -0.0181189104914665, -0.0086927134543657, -0.0032838508486748 ]
  - [  -0.0391187742352486, -0.0176824126392603, -0.0033088363707066 ]
  - [  -0.0389933697879314, -0.0177298076450825, -0.0033477731049061 ]
  - [  -0.0391416698694229, -0.0179718788713217, -0.0034432783722878 ]
  - [  -0.0391360819339752, -0.0176945477724075, -0.0033059455454350 ]
  - [  -0.0389331877231598, -0.0178737826645374, -0.0031600929796696 ]
  - [  -0.0391908511519432, -0.0178176350891590, -0.0032625421881676 ]
  - [   0.0030735880136490,  0.0005390029400587, -0.0142377540469170 ]
  - [   0.0031615532934666,  0.0004480388015509, -0.0141545273363590 ]
  - [   0.0030687414109707,  0.0004873462021351, -0.0143263712525368 ]
  - [   0.0030120089650154,  0.0006381589919329, -0.0142697654664516 ]
  - [   0.0030361600220203,  0.0005884747952223, -0.0142416767776012 ]
  - [   0.0030638836324215,  0.0004025250673294, -0.0143829025328159 ]
  - [   0.0415123589336872,  0.0220816601067781,  0.0013583041727543 ]