# Thermal properties / unit cell (natom)

unit:
  temperature:   K
  free_energy:   kJ/mol
  entropy:       J/K/mol
  heat_capacity: J/K/mol

natom: 108  
cutoff_frequency: 0.00000
num_modes: 236196
num_integrated_modes: 236193

zero_point_energy:     441.5894926

thermal_properties:
- temperature:         0.0000000
  free_energy:       441.5894926
  entropy:             0.0000000
  heat_capacity:       0.0000000
  energy:            441.5894926

- temperature:        10.0000000
  free_energy:       441.5822165
  entropy:             3.2991982
  heat_capacity:      11.9346960
  energy:            441.6152085

- temperature:        20.0000000
  free_energy:       441.4222735
  entropy:            35.9512159
  heat_capacity:     108.2547669
  energy:            442.1412978

- temperature:        30.0000000
  free_energy:       440.7372197
  entropy:           105.6442324
  heat_capacity:     245.4822933
  energy:            443.9065466

- temperature:        40.0000000
  free_energy:       439.2454874
  entropy:           194.9436450
  heat_capacity:     381.7354267
  energy:            447.0432332

- temperature:        50.0000000
  free_energy:       436.8030964
  entropy:           295.0017182
  heat_capacity:     521.3996386
  energy:            451.5531823

- temperature:        60.0000000
  free_energy:       433.3192046
  entropy:           402.9712739
  heat_capacity:     668.7080931
  energy:            457.4974810

- temperature:        70.0000000
  free_energy:       428.7218300
  entropy:           517.4899362
  heat_capacity:     821.5589097
  energy:            464.9461255

- temperature:        80.0000000
  free_energy:       422.9519839
  entropy:           637.2294773
  heat_capacity:     974.9219340
  energy:            473.9303421

- temperature:        90.0000000
  free_energy:       415.9647440
  entropy:           760.7179999
  heat_capacity:    1123.7725534
  energy:            484.4293640

- temperature:       100.0000000
  free_energy:       407.7300583
  entropy:           886.4811401
  heat_capacity:    1264.3892104
  energy:            496.3781723

- temperature:       110.0000000
  free_energy:       398.2320145
  entropy:          1013.1836331
  heat_capacity:    1394.5679274
  energy:            509.6822142

- temperature:       120.0000000
  free_energy:       387.4670192
  entropy:          1139.7039023
  heat_capacity:    1513.3628656
  energy:            524.2314875

- temperature:       130.0000000
  free_energy:       375.4415354
  entropy:          1265.1517231
  heat_capacity:    1620.7121792
  energy:            539.9112595

- temperature:       140.0000000
  free_energy:       362.1698289
  entropy:          1388.8524716
  heat_capacity:    1717.1043663
  energy:            556.6091750

- temperature:       150.0000000
  free_energy:       347.6719583
  entropy:          1510.3165521
  heat_capacity:    1803.3290343
  energy:            574.2194411

- temperature:       160.0000000
  free_energy:       331.9720956
  entropy:          1629.2052537
  heat_capacity:    1880.3086195
  energy:            592.6449362

- temperature:       170.0000000
  free_energy:       315.0971807
  entropy:          1745.2987436
  heat_capacity:    1948.9930444
  energy:            611.7979671

- temperature:       180.0000000
  free_energy:       297.0758740
  entropy:          1858.4685229
  heat_capacity:    2010.2985161
  energy:            631.6002082

- temperature:       190.0000000
  free_energy:       277.9377606
  entropy:          1968.6548613
  heat_capacity:    2065.0753377
  energy:            651.9821843

- temperature:       200.0000000
  free_energy:       257.7127553
  entropy:          2075.8488731
  heat_capacity:    2114.0938605
  energy:            672.8825299

- temperature:       210.0000000
  free_energy:       236.4306671
  entropy:          2180.0785694
  heat_capacity:    2158.0412449
  energy:            694.2471667

- temperature:       220.0000000
  free_energy:       214.1208862
  entropy:          2281.3981624
  heat_capacity:    2197.5242932
  energy:            716.0284820

- temperature:       230.0000000
  free_energy:       190.8121645
  entropy:          2379.8799522
  heat_capacity:    2233.0753981
  energy:            738.1845535

- temperature:       240.0000000
  free_energy:       166.5324664
  entropy:          2475.6082273
  heat_capacity:    2265.1598223
  energy:            760.6784409

- temperature:       250.0000000
  free_energy:       141.3088730
  entropy:          2568.6747179
  heat_capacity:    2294.1832691
  energy:            783.4775525

- temperature:       260.0000000
  free_energy:       115.1675254
  entropy:          2659.1752338
  heat_capacity:    2320.4991742
  energy:            806.5530862

- temperature:       270.0000000
  free_energy:        88.1335968
  entropy:          2747.2072027
  heat_capacity:    2344.4154299
  energy:            829.8795415

- temperature:       280.0000000
  free_energy:        60.2312855
  entropy:          2832.8678890
  heat_capacity:    2366.2004232
  energy:            853.4342944

- temperature:       290.0000000
  free_energy:        31.4838236
  entropy:          2916.2531247
  heat_capacity:    2386.0883646
  energy:            877.1972298

- temperature:       300.0000000
  free_energy:         1.9134958
  entropy:          2997.4564250
  heat_capacity:    2404.2839400
  energy:            901.1504233

- temperature:       310.0000000
  free_energy:       -28.4583342
  entropy:          3076.5683911
  heat_capacity:    2420.9663389
  energy:            925.2778671

- temperature:       320.0000000
  free_energy:       -59.6111923
  entropy:          3153.6763265
  heat_capacity:    2436.2927275
  energy:            949.5652322

- temperature:       330.0000000
  free_energy:       -91.5254603
  entropy:          3228.8640124
  heat_capacity:    2450.4012329
  energy:            973.9996638

- temperature:       340.0000000
  free_energy:      -124.1823393
  entropy:          3302.2115988
  heat_capacity:    2463.4135040
  energy:            998.5696043

- temperature:       350.0000000
  free_energy:      -157.5638140
  entropy:          3373.7955801
  heat_capacity:    2475.4369066
  energy:           1023.2646391

- temperature:       360.0000000
  free_energy:      -191.6526155
  entropy:          3443.6888319
  heat_capacity:    2486.5664053
  energy:           1048.0753639

- temperature:       370.0000000
  free_energy:      -226.4321863
  entropy:          3511.9606904
  heat_capacity:    2496.8861778
  energy:           1072.9932691

- temperature:       380.0000000
  free_energy:      -261.8866448
  entropy:          3578.6770614
  heat_capacity:    2506.4710014
  energy:           1098.0106386

- temperature:       390.0000000
  free_energy:      -298.0007516
  entropy:          3643.9005478
  heat_capacity:    2515.3874440
  energy:           1123.1204620

- temperature:       400.0000000
  free_energy:      -334.7598779
  entropy:          3707.6905901
  heat_capacity:    2523.6948904
  energy:           1148.3163582

- temperature:       410.0000000
  free_energy:      -372.1499737
  entropy:          3770.1036124
  heat_capacity:    2531.4464270
  energy:           1173.5925074

- temperature:       420.0000000
  free_energy:      -410.1575389
  entropy:          3831.1931705
  heat_capacity:    2538.6896055
  energy:           1198.9435927

- temperature:       430.0000000
  free_energy:      -448.7695953
  entropy:          3891.0101000
  heat_capacity:    2545.4671051
  energy:           1224.3647477

- temperature:       440.0000000
  free_energy:      -487.9736599
  entropy:          3949.6026610
  heat_capacity:    2551.8173056
  energy:           1249.8515109

- temperature:       450.0000000
  free_energy:      -527.7577203
  entropy:          4007.0166787
  heat_capacity:    2557.7747861
  energy:           1275.3997851

- temperature:       460.0000000
  free_energy:      -568.1102104
  entropy:          4063.2956789
  heat_capacity:    2563.3707583
  energy:           1301.0058019

- temperature:       470.0000000
  free_energy:      -609.0199886
  entropy:          4118.4810175
  heat_capacity:    2568.6334457
  energy:           1326.6660897

- temperature:       480.0000000
  free_energy:      -650.4763164
  entropy:          4172.6120038
  heat_capacity:    2573.5884138
  energy:           1352.3774454

- temperature:       490.0000000
  free_energy:      -692.4688389
  entropy:          4225.7260177
  heat_capacity:    2578.2588602
  energy:           1378.1369098

- temperature:       500.0000000
  free_energy:      -734.9875656
  entropy:          4277.8586205
  heat_capacity:    2582.6658683
  energy:           1403.9417447

- temperature:       510.0000000
  free_energy:      -778.0228530
  entropy:          4329.0436591
  heat_capacity:    2586.8286314
  energy:           1429.7894132

- temperature:       520.0000000
  free_energy:      -821.5653878
  entropy:          4379.3133644
  heat_capacity:    2590.7646491
  energy:           1455.6775616

- temperature:       530.0000000
  free_energy:      -865.6061717
  entropy:          4428.6984442
  heat_capacity:    2594.4899010
  energy:           1481.6040037

- temperature:       540.0000000
  free_energy:      -910.1365057
  entropy:          4477.2281697
  heat_capacity:    2598.0190007
  energy:           1507.5667060

- temperature:       550.0000000
  free_energy:      -955.1479771
  entropy:          4524.9304577
  heat_capacity:    2601.3653315
  energy:           1533.5637747

- temperature:       560.0000000
  free_energy:     -1000.6324456
  entropy:          4571.8319465
  heat_capacity:    2604.5411670
  energy:           1559.5934444

- temperature:       570.0000000
  free_energy:     -1046.5820316
  entropy:          4617.9580683
  heat_capacity:    2607.5577790
  energy:           1585.6540673

- temperature:       580.0000000
  free_energy:     -1092.9891036
  entropy:          4663.3331162
  heat_capacity:    2610.4255321
  energy:           1611.7441039

- temperature:       590.0000000
  free_energy:     -1139.8462678
  entropy:          4707.9803076
  heat_capacity:    2613.1539699
  energy:           1637.8621137

- temperature:       600.0000000
  free_energy:     -1187.1463576
  entropy:          4751.9218432
  heat_capacity:    2615.7518902
  energy:           1664.0067483

- temperature:       610.0000000
  free_energy:     -1234.8824234
  entropy:          4795.1789622
  heat_capacity:    2618.2274138
  energy:           1690.1767436

- temperature:       620.0000000
  free_energy:     -1283.0477233
  entropy:          4837.7719951
  heat_capacity:    2620.5880452
  energy:           1716.3709136

- temperature:       630.0000000
  free_energy:     -1331.6357147
  entropy:          4879.7204117
  heat_capacity:    2622.8407273
  energy:           1742.5881447

- temperature:       640.0000000
  free_energy:     -1380.6400451
  entropy:          4921.0428671
  heat_capacity:    2624.9918907
  energy:           1768.8273898

- temperature:       650.0000000
  free_energy:     -1430.0545452
  entropy:          4961.7572449
  heat_capacity:    2627.0474981
  energy:           1795.0876640

- temperature:       660.0000000
  free_energy:     -1479.8732204
  entropy:          5001.8806972
  heat_capacity:    2629.0130842
  energy:           1821.3680398

- temperature:       670.0000000
  free_energy:     -1530.0902443
  entropy:          5041.4296823
  heat_capacity:    2630.8937918
  energy:           1847.6676428

- temperature:       680.0000000
  free_energy:     -1580.6999518
  entropy:          5080.4200007
  heat_capacity:    2632.6944041
  energy:           1873.9856487

- temperature:       690.0000000
  free_energy:     -1631.6968327
  entropy:          5118.8668283
  heat_capacity:    2634.4193746
  energy:           1900.3212788

- temperature:       700.0000000
  free_energy:     -1683.0755254
  entropy:          5156.7847476
  heat_capacity:    2636.0728536
  energy:           1926.6737979

- temperature:       710.0000000
  free_energy:     -1734.8308114
  entropy:          5194.1877774
  heat_capacity:    2637.6587124
  energy:           1953.0425105

- temperature:       720.0000000
  free_energy:     -1786.9576097
  entropy:          5231.0894007
  heat_capacity:    2639.1805657
  energy:           1979.4267588

- temperature:       730.0000000
  free_energy:     -1839.4509714
  entropy:          5267.5025906
  heat_capacity:    2640.6417910
  energy:           2005.8259198

- temperature:       740.0000000
  free_energy:     -1892.3060751
  entropy:          5303.4398354
  heat_capacity:    2642.0455477
  energy:           2032.2394031

- temperature:       750.0000000
  free_energy:     -1945.5182218
  entropy:          5338.9131611
  heat_capacity:    2643.3947929
  energy:           2058.6666490

- temperature:       760.0000000
  free_energy:     -1999.0828306
  entropy:          5373.9341540
  heat_capacity:    2644.6922973
  energy:           2085.1071265

- temperature:       770.0000000
  free_energy:     -2052.9954343
  entropy:          5408.5139812
  heat_capacity:    2645.9406586
  energy:           2111.5603312

- temperature:       780.0000000
  free_energy:     -2107.2516756
  entropy:          5442.6634097
  heat_capacity:    2647.1423143
  energy:           2138.0257840

- temperature:       790.0000000
  free_energy:     -2161.8473025
  entropy:          5476.3928253
  heat_capacity:    2648.2995538
  energy:           2164.5030294

- temperature:       800.0000000
  free_energy:     -2216.7781655
  entropy:          5509.7122496
  heat_capacity:    2649.4145282
  energy:           2190.9916342

- temperature:       810.0000000
  free_energy:     -2272.0402132
  entropy:          5542.6313568
  heat_capacity:    2650.4892608
  energy:           2217.4911859

- temperature:       820.0000000
  free_energy:     -2327.6294894
  entropy:          5575.1594891
  heat_capacity:    2651.5256560
  energy:           2244.0012916

- temperature:       830.0000000
  free_energy:     -2383.5421298
  entropy:          5607.3056711
  heat_capacity:    2652.5255071
  energy:           2270.5215772

- temperature:       840.0000000
  free_energy:     -2439.7743588
  entropy:          5639.0786242
  heat_capacity:    2653.4905044
  energy:           2297.0516856

- temperature:       850.0000000
  free_energy:     -2496.3224863
  entropy:          5670.4867797
  heat_capacity:    2654.4222422
  energy:           2323.5912764

- temperature:       860.0000000
  free_energy:     -2553.1829056
  entropy:          5701.5382909
  heat_capacity:    2655.3222248
  energy:           2350.1400246

- temperature:       870.0000000
  free_energy:     -2610.3520897
  entropy:          5732.2410454
  heat_capacity:    2656.1918728
  energy:           2376.6976198

- temperature:       880.0000000
  free_energy:     -2667.8265894
  entropy:          5762.6026760
  heat_capacity:    2657.0325289
  energy:           2403.2637654

- temperature:       890.0000000
  free_energy:     -2725.6030308
  entropy:          5792.6305716
  heat_capacity:    2657.8454621
  energy:           2429.8381780

- temperature:       900.0000000
  free_energy:     -2783.6781123
  entropy:          5822.3318873
  heat_capacity:    2658.6318735
  energy:           2456.4205863

- temperature:       910.0000000
  free_energy:     -2842.0486030
  entropy:          5851.7135537
  heat_capacity:    2659.3928999
  energy:           2483.0107308

- temperature:       920.0000000
  free_energy:     -2900.7113403
  entropy:          5880.7822864
  heat_capacity:    2660.1296180
  energy:           2509.6083633

- temperature:       930.0000000
  free_energy:     -2959.6632274
  entropy:          5909.5445946
  heat_capacity:    2660.8430483
  energy:           2536.2132456

- temperature:       940.0000000
  free_energy:     -3018.9012318
  entropy:          5938.0067890
  heat_capacity:    2661.5341586
  energy:           2562.8251498

- temperature:       950.0000000
  free_energy:     -3078.4223832
  entropy:          5966.1749901
  heat_capacity:    2662.2038670
  energy:           2589.4438574

- temperature:       960.0000000
  free_energy:     -3138.2237714
  entropy:          5994.0551356
  heat_capacity:    2662.8530450
  energy:           2616.0691587

- temperature:       970.0000000
  free_energy:     -3198.3025449
  entropy:          6021.6529872
  heat_capacity:    2663.4825204
  energy:           2642.7008527

- temperature:       980.0000000
  free_energy:     -3258.6559089
  entropy:          6048.9741377
  heat_capacity:    2664.0930800
  energy:           2669.3387461

- temperature:       990.0000000
  free_energy:     -3319.2811235
  entropy:          6076.0240173
  heat_capacity:    2664.6854717
  energy:           2695.9826537

- temperature:      1000.0000000
  free_energy:     -3380.1755026
  entropy:          6102.8078999
  heat_capacity:    2665.2604067
  energy:           2722.6323973
