phonopy:
  version: "2.37.1"
  frequency_unit_conversion_factor: 15.633302
  symmetry_tolerance: 1.00000e-05

space_group:
  type: "P1"
  number: 1
  Hall_symbol: "P 1"

primitive_matrix:
- [ -1.000000000000000,  0.000000000000000,  0.000000000000000 ]
- [  0.000000000000000,  1.000000000000000, -0.000000000000000 ]
- [  0.000000000000000,  0.000000000000000, -1.000000000000000 ]

supercell_matrix:
- [   3,   0,   0 ]
- [   0,   3,   0 ]
- [   0,   0,   2 ]

primitive_cell:
  lattice:
  - [    -4.772023963238166,     0.000000000000000,     0.000000000000000 ] # a
  - [    -2.385639788805554,     4.132910327739198,     0.000000000000000 ] # b
  - [    -0.000154767169194,     0.000085998661577,    -5.735016530341654 ] # c
  points:
  - symbol: Li # 1
    coordinates: [  0.629537560453129,  0.241252116826736,  0.467779941813248 ]
    mass: 6.940000
  - symbol: Li # 2
    coordinates: [  0.296108075661828,  0.907831937601048,  0.186165755050526 ]
    mass: 6.940000
  - symbol: Li # 3
    coordinates: [  0.962880565645803,  0.574568056028909,  0.826794527597074 ]
    mass: 6.940000
  - symbol: Sn # 4
    coordinates: [  0.629510153818181,  0.241203753418215,  0.969213831224964 ]
    mass: 118.710000
  - symbol: Sn # 5
    coordinates: [  0.296220311775941,  0.907919184373105,  0.684714760243406 ]
    mass: 118.710000
  reciprocal_lattice: # without 2pi
  - [    -0.209554689520341,    -0.120961251420131,     0.000003841258390 ] # a*
  - [    -0.000000000000000,     0.241960246097820,     0.000003628282013 ] # b*
  - [    -0.000000000000000,     0.000000000000000,    -0.174367413713527 ] # c*

unit_cell:
  lattice:
  - [     4.772023963238166,     0.000000000000000,     0.000000000000000 ] # a
  - [    -2.385639788805554,     4.132910327739199,     0.000000000000000 ] # b
  - [     0.000154767169194,    -0.000085998661577,     5.735016530341654 ] # c
  points:
  - symbol: Li # 1
    coordinates: [  0.370462439546871,  0.241252116826736,  0.532220058186752 ]
    mass: 6.940000
    reduced_to: 1
  - symbol: Li # 2
    coordinates: [  0.703891924338172,  0.907831937601048,  0.813834244949474 ]
    mass: 6.940000
    reduced_to: 2
  - symbol: Li # 3
    coordinates: [  0.037119434354197,  0.574568056028909,  0.173205472402926 ]
    mass: 6.940000
    reduced_to: 3
  - symbol: Sn # 4
    coordinates: [  0.370489846181819,  0.241203753418215,  0.030786168775036 ]
    mass: 118.710000
    reduced_to: 4
  - symbol: Sn # 5
    coordinates: [  0.703779688224059,  0.907919184373105,  0.315285239756594 ]
    mass: 118.710000
    reduced_to: 5

supercell:
  lattice:
  - [    14.316071889714500,     0.000000000000000,     0.000000000000000 ] # a
  - [    -7.156919366416663,    12.398730983217597,     0.000000000000000 ] # b
  - [     0.000309534338388,    -0.000171997323154,    11.470033060683308 ] # c
  points:
  - symbol: Li # 1
    coordinates: [  0.123487479848957,  0.080417372275579,  0.266110029093376 ]
    mass: 6.940000
    reduced_to: 1
  - symbol: Li # 2
    coordinates: [  0.456820813182290,  0.080417372275579,  0.266110029093376 ]
    mass: 6.940000
    reduced_to: 1
  - symbol: Li # 3
    coordinates: [  0.790154146515624,  0.080417372275579,  0.266110029093376 ]
    mass: 6.940000
    reduced_to: 1
  - symbol: Li # 4
    coordinates: [  0.123487479848957,  0.413750705608912,  0.266110029093376 ]
    mass: 6.940000
    reduced_to: 1
  - symbol: Li # 5
    coordinates: [  0.456820813182290,  0.413750705608912,  0.266110029093376 ]
    mass: 6.940000
    reduced_to: 1
  - symbol: Li # 6
    coordinates: [  0.790154146515624,  0.413750705608912,  0.266110029093376 ]
    mass: 6.940000
    reduced_to: 1
  - symbol: Li # 7
    coordinates: [  0.123487479848957,  0.747084038942245,  0.266110029093376 ]
    mass: 6.940000
    reduced_to: 1
  - symbol: Li # 8
    coordinates: [  0.456820813182290,  0.747084038942245,  0.266110029093376 ]
    mass: 6.940000
    reduced_to: 1
  - symbol: Li # 9
    coordinates: [  0.790154146515624,  0.747084038942245,  0.266110029093376 ]
    mass: 6.940000
    reduced_to: 1
  - symbol: Li # 10
    coordinates: [  0.123487479848957,  0.080417372275579,  0.766110029093376 ]
    mass: 6.940000
    reduced_to: 1
  - symbol: Li # 11
    coordinates: [  0.456820813182290,  0.080417372275579,  0.766110029093376 ]
    mass: 6.940000
    reduced_to: 1
  - symbol: Li # 12
    coordinates: [  0.790154146515624,  0.080417372275579,  0.766110029093376 ]
    mass: 6.940000
    reduced_to: 1
  - symbol: Li # 13
    coordinates: [  0.123487479848957,  0.413750705608912,  0.766110029093376 ]
    mass: 6.940000
    reduced_to: 1
  - symbol: Li # 14
    coordinates: [  0.456820813182290,  0.413750705608912,  0.766110029093376 ]
    mass: 6.940000
    reduced_to: 1
  - symbol: Li # 15
    coordinates: [  0.790154146515624,  0.413750705608912,  0.766110029093376 ]
    mass: 6.940000
    reduced_to: 1
  - symbol: Li # 16
    coordinates: [  0.123487479848957,  0.747084038942245,  0.766110029093376 ]
    mass: 6.940000
    reduced_to: 1
  - symbol: Li # 17
    coordinates: [  0.456820813182290,  0.747084038942245,  0.766110029093376 ]
    mass: 6.940000
    reduced_to: 1
  - symbol: Li # 18
    coordinates: [  0.790154146515624,  0.747084038942245,  0.766110029093376 ]
    mass: 6.940000
    reduced_to: 1
  - symbol: Li # 19
    coordinates: [  0.234630641446057,  0.302610645867016,  0.406917122474737 ]
    mass: 6.940000
    reduced_to: 19
  - symbol: Li # 20
    coordinates: [  0.567963974779391,  0.302610645867016,  0.406917122474737 ]
    mass: 6.940000
    reduced_to: 19
  - symbol: Li # 21
    coordinates: [  0.901297308112724,  0.302610645867016,  0.406917122474737 ]
    mass: 6.940000
    reduced_to: 19
  - symbol: Li # 22
    coordinates: [  0.234630641446057,  0.635943979200349,  0.406917122474737 ]
    mass: 6.940000
    reduced_to: 19
  - symbol: Li # 23
    coordinates: [  0.567963974779391,  0.635943979200349,  0.406917122474737 ]
    mass: 6.940000
    reduced_to: 19
  - symbol: Li # 24
    coordinates: [  0.901297308112724,  0.635943979200349,  0.406917122474737 ]
    mass: 6.940000
    reduced_to: 19
  - symbol: Li # 25
    coordinates: [  0.234630641446057,  0.969277312533683,  0.406917122474737 ]
    mass: 6.940000
    reduced_to: 19
  - symbol: Li # 26
    coordinates: [  0.567963974779391,  0.969277312533683,  0.406917122474737 ]
    mass: 6.940000
    reduced_to: 19
  - symbol: Li # 27
    coordinates: [  0.901297308112724,  0.969277312533683,  0.406917122474737 ]
    mass: 6.940000
    reduced_to: 19
  - symbol: Li # 28
    coordinates: [  0.234630641446057,  0.302610645867016,  0.906917122474737 ]
    mass: 6.940000
    reduced_to: 19
  - symbol: Li # 29
    coordinates: [  0.567963974779391,  0.302610645867016,  0.906917122474737 ]
    mass: 6.940000
    reduced_to: 19
  - symbol: Li # 30
    coordinates: [  0.901297308112724,  0.302610645867016,  0.906917122474737 ]
    mass: 6.940000
    reduced_to: 19
  - symbol: Li # 31
    coordinates: [  0.234630641446057,  0.635943979200349,  0.906917122474737 ]
    mass: 6.940000
    reduced_to: 19
  - symbol: Li # 32
    coordinates: [  0.567963974779391,  0.635943979200349,  0.906917122474737 ]
    mass: 6.940000
    reduced_to: 19
  - symbol: Li # 33
    coordinates: [  0.901297308112724,  0.635943979200349,  0.906917122474737 ]
    mass: 6.940000
    reduced_to: 19
  - symbol: Li # 34
    coordinates: [  0.234630641446057,  0.969277312533683,  0.906917122474737 ]
    mass: 6.940000
    reduced_to: 19
  - symbol: Li # 35
    coordinates: [  0.567963974779391,  0.969277312533683,  0.906917122474737 ]
    mass: 6.940000
    reduced_to: 19
  - symbol: Li # 36
    coordinates: [  0.901297308112724,  0.969277312533683,  0.906917122474737 ]
    mass: 6.940000
    reduced_to: 19
  - symbol: Li # 37
    coordinates: [  0.012373144784732,  0.191522685342970,  0.086602736201463 ]
    mass: 6.940000
    reduced_to: 37
  - symbol: Li # 38
    coordinates: [  0.345706478118066,  0.191522685342970,  0.086602736201463 ]
    mass: 6.940000
    reduced_to: 37
  - symbol: Li # 39
    coordinates: [  0.679039811451399,  0.191522685342970,  0.086602736201463 ]
    mass: 6.940000
    reduced_to: 37
  - symbol: Li # 40
    coordinates: [  0.012373144784732,  0.524856018676303,  0.086602736201463 ]
    mass: 6.940000
    reduced_to: 37
  - symbol: Li # 41
    coordinates: [  0.345706478118066,  0.524856018676303,  0.086602736201463 ]
    mass: 6.940000
    reduced_to: 37
  - symbol: Li # 42
    coordinates: [  0.679039811451399,  0.524856018676303,  0.086602736201463 ]
    mass: 6.940000
    reduced_to: 37
  - symbol: Li # 43
    coordinates: [  0.012373144784732,  0.858189352009636,  0.086602736201463 ]
    mass: 6.940000
    reduced_to: 37
  - symbol: Li # 44
    coordinates: [  0.345706478118066,  0.858189352009636,  0.086602736201463 ]
    mass: 6.940000
    reduced_to: 37
  - symbol: Li # 45
    coordinates: [  0.679039811451399,  0.858189352009636,  0.086602736201463 ]
    mass: 6.940000
    reduced_to: 37
  - symbol: Li # 46
    coordinates: [  0.012373144784732,  0.191522685342970,  0.586602736201463 ]
    mass: 6.940000
    reduced_to: 37
  - symbol: Li # 47
    coordinates: [  0.345706478118066,  0.191522685342970,  0.586602736201463 ]
    mass: 6.940000
    reduced_to: 37
  - symbol: Li # 48
    coordinates: [  0.679039811451399,  0.191522685342970,  0.586602736201463 ]
    mass: 6.940000
    reduced_to: 37
  - symbol: Li # 49
    coordinates: [  0.012373144784732,  0.524856018676303,  0.586602736201463 ]
    mass: 6.940000
    reduced_to: 37
  - symbol: Li # 50
    coordinates: [  0.345706478118066,  0.524856018676303,  0.586602736201463 ]
    mass: 6.940000
    reduced_to: 37
  - symbol: Li # 51
    coordinates: [  0.679039811451399,  0.524856018676303,  0.586602736201463 ]
    mass: 6.940000
    reduced_to: 37
  - symbol: Li # 52
    coordinates: [  0.012373144784732,  0.858189352009636,  0.586602736201463 ]
    mass: 6.940000
    reduced_to: 37
  - symbol: Li # 53
    coordinates: [  0.345706478118066,  0.858189352009636,  0.586602736201463 ]
    mass: 6.940000
    reduced_to: 37
  - symbol: Li # 54
    coordinates: [  0.679039811451399,  0.858189352009636,  0.586602736201463 ]
    mass: 6.940000
    reduced_to: 37
  - symbol: Sn # 55
    coordinates: [  0.123496615393940,  0.080401251139405,  0.015393084387518 ]
    mass: 118.710000
    reduced_to: 55
  - symbol: Sn # 56
    coordinates: [  0.456829948727273,  0.080401251139405,  0.015393084387518 ]
    mass: 118.710000
    reduced_to: 55
  - symbol: Sn # 57
    coordinates: [  0.790163282060606,  0.080401251139405,  0.015393084387518 ]
    mass: 118.710000
    reduced_to: 55
  - symbol: Sn # 58
    coordinates: [  0.123496615393940,  0.413734584472738,  0.015393084387518 ]
    mass: 118.710000
    reduced_to: 55
  - symbol: Sn # 59
    coordinates: [  0.456829948727273,  0.413734584472738,  0.015393084387518 ]
    mass: 118.710000
    reduced_to: 55
  - symbol: Sn # 60
    coordinates: [  0.790163282060606,  0.413734584472738,  0.015393084387518 ]
    mass: 118.710000
    reduced_to: 55
  - symbol: Sn # 61
    coordinates: [  0.123496615393940,  0.747067917806072,  0.015393084387518 ]
    mass: 118.710000
    reduced_to: 55
  - symbol: Sn # 62
    coordinates: [  0.456829948727273,  0.747067917806072,  0.015393084387518 ]
    mass: 118.710000
    reduced_to: 55
  - symbol: Sn # 63
    coordinates: [  0.790163282060606,  0.747067917806072,  0.015393084387518 ]
    mass: 118.710000
    reduced_to: 55
  - symbol: Sn # 64
    coordinates: [  0.123496615393940,  0.080401251139405,  0.515393084387518 ]
    mass: 118.710000
    reduced_to: 55
  - symbol: Sn # 65
    coordinates: [  0.456829948727273,  0.080401251139405,  0.515393084387518 ]
    mass: 118.710000
    reduced_to: 55
  - symbol: Sn # 66
    coordinates: [  0.790163282060606,  0.080401251139405,  0.515393084387518 ]
    mass: 118.710000
    reduced_to: 55
  - symbol: Sn # 67
    coordinates: [  0.123496615393940,  0.413734584472738,  0.515393084387518 ]
    mass: 118.710000
    reduced_to: 55
  - symbol: Sn # 68
    coordinates: [  0.456829948727273,  0.413734584472738,  0.515393084387518 ]
    mass: 118.710000
    reduced_to: 55
  - symbol: Sn # 69
    coordinates: [  0.790163282060606,  0.413734584472738,  0.515393084387518 ]
    mass: 118.710000
    reduced_to: 55
  - symbol: Sn # 70
    coordinates: [  0.123496615393940,  0.747067917806072,  0.515393084387518 ]
    mass: 118.710000
    reduced_to: 55
  - symbol: Sn # 71
    coordinates: [  0.456829948727273,  0.747067917806072,  0.515393084387518 ]
    mass: 118.710000
    reduced_to: 55
  - symbol: Sn # 72
    coordinates: [  0.790163282060606,  0.747067917806072,  0.515393084387518 ]
    mass: 118.710000
    reduced_to: 55
  - symbol: Sn # 73
    coordinates: [  0.234593229408020,  0.302639728124368,  0.157642619878297 ]
    mass: 118.710000
    reduced_to: 73
  - symbol: Sn # 74
    coordinates: [  0.567926562741353,  0.302639728124368,  0.157642619878297 ]
    mass: 118.710000
    reduced_to: 73
  - symbol: Sn # 75
    coordinates: [  0.901259896074686,  0.302639728124368,  0.157642619878297 ]
    mass: 118.710000
    reduced_to: 73
  - symbol: Sn # 76
    coordinates: [  0.234593229408020,  0.635973061457702,  0.157642619878297 ]
    mass: 118.710000
    reduced_to: 73
  - symbol: Sn # 77
    coordinates: [  0.567926562741353,  0.635973061457702,  0.157642619878297 ]
    mass: 118.710000
    reduced_to: 73
  - symbol: Sn # 78
    coordinates: [  0.901259896074686,  0.635973061457702,  0.157642619878297 ]
    mass: 118.710000
    reduced_to: 73
  - symbol: Sn # 79
    coordinates: [  0.234593229408020,  0.969306394791035,  0.157642619878297 ]
    mass: 118.710000
    reduced_to: 73
  - symbol: Sn # 80
    coordinates: [  0.567926562741353,  0.969306394791035,  0.157642619878297 ]
    mass: 118.710000
    reduced_to: 73
  - symbol: Sn # 81
    coordinates: [  0.901259896074686,  0.969306394791035,  0.157642619878297 ]
    mass: 118.710000
    reduced_to: 73
  - symbol: Sn # 82
    coordinates: [  0.234593229408020,  0.302639728124368,  0.657642619878297 ]
    mass: 118.710000
    reduced_to: 73
  - symbol: Sn # 83
    coordinates: [  0.567926562741353,  0.302639728124368,  0.657642619878297 ]
    mass: 118.710000
    reduced_to: 73
  - symbol: Sn # 84
    coordinates: [  0.901259896074686,  0.302639728124368,  0.657642619878297 ]
    mass: 118.710000
    reduced_to: 73
  - symbol: Sn # 85
    coordinates: [  0.234593229408020,  0.635973061457702,  0.657642619878297 ]
    mass: 118.710000
    reduced_to: 73
  - symbol: Sn # 86
    coordinates: [  0.567926562741353,  0.635973061457702,  0.657642619878297 ]
    mass: 118.710000
    reduced_to: 73
  - symbol: Sn # 87
    coordinates: [  0.901259896074686,  0.635973061457702,  0.657642619878297 ]
    mass: 118.710000
    reduced_to: 73
  - symbol: Sn # 88
    coordinates: [  0.234593229408020,  0.969306394791035,  0.657642619878297 ]
    mass: 118.710000
    reduced_to: 73
  - symbol: Sn # 89
    coordinates: [  0.567926562741353,  0.969306394791035,  0.657642619878297 ]
    mass: 118.710000
    reduced_to: 73
  - symbol: Sn # 90
    coordinates: [  0.901259896074686,  0.969306394791035,  0.657642619878297 ]
    mass: 118.710000
    reduced_to: 73

displacements:
- atom:    1
  displacement:
    [   0.0100000000000000,  0.0000000000000000,  0.0000000000000000 ]
  forces:
  - [  -0.0083801019936800,  0.0001308163627982,  0.0291669741272926 ]
  - [  -0.0007151076570153,  0.0001157349906862,  0.0290085971355438 ]
  - [  -0.0007060719653964, -0.0001065833566827,  0.0291618816554546 ]
  - [  -0.0002619640727062,  0.0003726372960955,  0.0291076973080635 ]
  - [  -0.0002610428200569, -0.0003680137451738,  0.0290635004639626 ]
  - [  -0.0000359055484296,  0.0000032729003578,  0.0290841720998287 ]
  - [  -0.0002616255369503,  0.0001491699367762,  0.0290307700634003 ]
  - [  -0.0000351363923983,  0.0000032121315598,  0.0290838479995728 ]
  - [  -0.0002608980285004, -0.0001472160220146,  0.0291388332843781 ]
  - [   0.0000684773549438,  0.0000052987597883,  0.0290828458964825 ]
  - [  -0.0000685560517013, -0.0000185305252671,  0.0290483441203833 ]
  - [  -0.0000674538314342,  0.0000238898210227,  0.0291174054145813 ]
  - [  -0.0000432441556768, -0.0000035623088479,  0.0290565527975559 ]
  - [  -0.0000430929248978,  0.0000101854093373,  0.0291088912636042 ]
  - [  -0.0000522890622960,  0.0000032889656723,  0.0290832333266735 ]
  - [  -0.0000433020104538,  0.0000387621112168,  0.0290217474102974 ]
  - [  -0.0000530323195562,  0.0000030752271414,  0.0290828347206116 ]
  - [  -0.0000432398373960, -0.0000319760292768,  0.0291430093348026 ]
  - [  -0.0001796537399059,  0.0001117080100812, -0.0289902798831463 ]
  - [  -0.0003122933558188,  0.0001235707895830, -0.0289846509695053 ]
  - [  -0.0003115210856777,  0.0001054812237271, -0.0289913080632687 ]
  - [  -0.0003245163825341,  0.0001100591907743, -0.0289953537285328 ]
  - [  -0.0003247618733440,  0.0001179086102638, -0.0289796497672796 ]
  - [  -0.0003263278922532,  0.0001144238340203, -0.0289885904639959 ]
  - [   0.0004368900263216, -0.0002420434611849, -0.0274845361709595 ]
  - [  -0.0003177540493198,  0.0001154822966782, -0.0289884544909000 ]
  - [   0.0004182190168649,  0.0004588438605424, -0.0304680876433849 ]
  - [  -0.0003386554308236,  0.0001154838901130, -0.0289901420474052 ]
  - [  -0.0003665427793749,  0.0001228576293215, -0.0289661251008511 ]
  - [  -0.0003654134343378,  0.0001073759485735, -0.0290127247571945 ]
  - [  -0.0002973844530061,  0.0001027553735184, -0.0289996620267630 ]
  - [  -0.0002977820986416,  0.0001270116481464, -0.0289781447499990 ]
  - [  -0.0003800673293881,  0.0001144452398876, -0.0289897732436657 ]
  - [   0.0000632767332718, -0.0001166612055385, -0.0290168970823288 ]
  - [  -0.0002765175886452,  0.0001152030017693, -0.0289892852306366 ]
  - [   0.0000663379323669,  0.0003486540226731, -0.0289511233568192 ]
  - [   0.0005538482801057, -0.0003450999502093, -0.0002951305359602 ]
  - [   0.0005687295924872,  0.0002204643096775, -0.0000566486269236 ]
  - [   0.0002572468074504, -0.0000587231479585, -0.0001693964004517 ]
  - [   0.0002015598583966, -0.0000918977893889, -0.0001339847221971 ]
  - [   0.0002293691504747, -0.0000570006668568, -0.0001700762659311 ]
  - [   0.0002012054901570, -0.0000264495611191, -0.0002061855047941 ]
  - [   0.0000701346434653, -0.0000591541174799, -0.0001706257462502 ]
  - [  -0.0004965555854142,  0.0003598157782108, -0.0001116096973419 ]
  - [  -0.0004966189153492, -0.0004795785062015, -0.0002322914078832 ]
  - [  -0.0000204761163332,  0.0001218591351062,  0.0001656729727983 ]
  - [  -0.0000154261360876, -0.0002409326843917, -0.0005008429288864 ]
  - [   0.0002131906512659, -0.0000607138499618, -0.0001697717234492 ]
  - [   0.0002022434491664, -0.0000648556742817, -0.0001700930297375 ]
  - [   0.0001877034083009, -0.0000590044073761, -0.0001696990802884 ]
  - [   0.0002015535719693, -0.0000530830584466, -0.0001698983833194 ]
  - [   0.0002954378724098, -0.0000608465634286, -0.0001692129299045 ]
  - [   0.0001215166412294, -0.0000202562659979, -0.0002120565623045 ]
  - [   0.0001220297999680, -0.0000963627826422, -0.0001282952725887 ]
  - [  -0.0010998821817338,  0.0000697535579093,  0.0144155696034431 ]
  - [  -0.0000895991397556,  0.0004104194813408,  0.0143812149763107 ]
  - [  -0.0000984683429124, -0.0002720173215494,  0.0143998265266418 ]
  - [   0.0000913111070986,  0.0000211652295548,  0.0144594088196754 ]
  - [   0.0000891726376722,  0.0001149581366917,  0.0143283009529114 ]
  - [  -0.0000328060377797,  0.0000674101902405,  0.0143954083323479 ]
  - [  -0.0003367529716343,  0.0000824026210466,  0.0144497752189636 ]
  - [   0.0000433624081779,  0.0000688100626576,  0.0143943801522255 ]
  - [  -0.0003383617440704,  0.0000564382862649,  0.0143381431698799 ]
  - [   0.0002740072086453,  0.0000630616123090,  0.0143552199006081 ]
  - [  -0.0000953976996243, -0.0000275575803244,  0.0144559741020203 ]
  - [  -0.0000950652174652,  0.0001619366958039,  0.0143305808305740 ]
  - [   0.0000202765586437,  0.0000332817435265,  0.0143648087978363 ]
  - [   0.0000208266556001,  0.0001067593693733,  0.0144219398498535 ]
  - [  -0.0000024553437470,  0.0000689812004566,  0.0143938735127449 ]
  - [   0.0000127653074742,  0.0002352073788643,  0.0144269987940788 ]
  - [   0.0000006790405678,  0.0000680610537529,  0.0143938884139061 ]
  - [   0.0000124540474644, -0.0000971481204033,  0.0143590718507767 ]
  - [   0.0004700345452875, -0.0001530586741865, -0.0143101587891579 ]
  - [   0.0001331602688879, -0.0001416481100023, -0.0144061744213104 ]
  - [   0.0001319348812103, -0.0001115030609071, -0.0142312571406364 ]
  - [   0.0001941733062267, -0.0002027743030339, -0.0143030062317848 ]
  - [   0.0001934270840138, -0.0000517377629876, -0.0143344998359680 ]
  - [   0.0001565876882523, -0.0001276880502701, -0.0143170133233070 ]
  - [   0.0052239061333239, -0.0028779311105609, -0.0167660117149353 ]
  - [   0.0003231908194721, -0.0001268391497433, -0.0143177136778831 ]
  - [   0.0050983577966690,  0.0025387515779585, -0.0119618922472000 ]
  - [   0.0002157085109502, -0.0001279921270907, -0.0143187567591667 ]
  - [   0.0001888035330921, -0.0001366825308651, -0.0143271088600159 ]
  - [   0.0001871499698609, -0.0001165824942291, -0.0143108144402504 ]
  - [   0.0001679612323642, -0.0001177822705358, -0.0143195688724518 ]
  - [   0.0001672320067883, -0.0001376587897539, -0.0143188387155533 ]
  - [   0.0002057428937405, -0.0001277639530599, -0.0143187940120697 ]
  - [   0.0003586909733713, -0.0002086744643748, -0.0142370015382767 ]
  - [   0.0001496314071119, -0.0001261343713850, -0.0143192932009697 ]
  - [   0.0003595536109060, -0.0000423998571932, -0.0144026800990105 ]
- atom:    1
  displacement:
    [  -0.0100000000000000,  0.0000000000000000,  0.0000000000000000 ]
  forces:
  - [   0.0082786343991756,  0.0001245746389031,  0.0291557777673006 ]
  - [   0.0006133224815130, -0.0001065798569471,  0.0291616711765528 ]
  - [   0.0006223544478416,  0.0001156457510660,  0.0290085487067699 ]
  - [   0.0001681132998783, -0.0003686032723635,  0.0290628559887409 ]
  - [   0.0001688524789643,  0.0003728587180376,  0.0291084647178650 ]
  - [  -0.0000576950042159,  0.0000032759271562,  0.0290842391550541 ]
  - [   0.0001685851602815, -0.0001473063603044,  0.0291391815990210 ]
  - [  -0.0000570731135667,  0.0000031897798181,  0.0290838554501534 ]
  - [   0.0001688958582236,  0.0001489161513746,  0.0290304850786924 ]
  - [  -0.0001675747334957,  0.0000052489340305,  0.0290839634835720 ]
  - [  -0.0000250795856118,  0.0000240565277636,  0.0291165784001350 ]
  - [  -0.0000239349901676, -0.0000185025855899,  0.0290491171181202 ]
  - [  -0.0000494579253427,  0.0000103432685137,  0.0291102472692728 ]
  - [  -0.0000492943800054, -0.0000035355333239,  0.0290550123900175 ]
  - [  -0.0000400103890570,  0.0000031497329473,  0.0290832612663507 ]
  - [  -0.0000494479500048, -0.0000322829000652,  0.0291440673172474 ]
  - [  -0.0000406858889619,  0.0000029643997550,  0.0290828943252563 ]
  - [  -0.0000495236745337,  0.0000391108915210,  0.0290208384394646 ]
  - [  -0.0004715173563454,  0.0001115491613746, -0.0289912559092045 ]
  - [  -0.0003397242981009,  0.0001058764100890, -0.0289916768670082 ]
  - [  -0.0003391407954041,  0.0001231575733982, -0.0289843417704105 ]
  - [  -0.0003262335085310,  0.0001182789346785, -0.0289788898080587 ]
  - [  -0.0003265490813646,  0.0001097719723475, -0.0289960857480764 ]
  - [  -0.0003229780122638,  0.0001143055487773, -0.0289885085076094 ]
  - [  -0.0010670219780877,  0.0004572942270897, -0.0304658934473991 ]
  - [  -0.0003336385707371,  0.0001155122081400, -0.0289883650839329 ]
  - [  -0.0010912267025560, -0.0002452147018630, -0.0274807438254356 ]
  - [  -0.0003126631490886,  0.0001151773321908, -0.0289895739406347 ]
  - [  -0.0002845294075087,  0.0001073734892998, -0.0290119759738445 ]
  - [  -0.0002832236641552,  0.0001226614840562, -0.0289665870368481 ]
  - [  -0.0003527099033818,  0.0001267713960260, -0.0289782471954823 ]
  - [  -0.0003529531531967,  0.0001029502527672, -0.0289997756481171 ]
  - [  -0.0002709160908125,  0.0001145824790001, -0.0289895515888929 ]
  - [  -0.0007170431781560,  0.0003486521018203, -0.0289502739906311 ]
  - [  -0.0003733798803296,  0.0001151400210802, -0.0289893783628941 ]
  - [  -0.0007129948353395, -0.0001159145031124, -0.0290176570415497 ]
  - [  -0.0001730190269882,  0.0002224722411484, -0.0000573489814997 ]
  - [  -0.0001579593517818, -0.0003455800469965, -0.0002967379987240 ]
  - [   0.0001376899890602, -0.0000588349066675, -0.0001695677638054 ]
  - [   0.0001934992615134, -0.0000273485202342, -0.0002058967947960 ]
  - [   0.0001637125387788, -0.0000570658594370, -0.0001700296998024 ]
  - [   0.0001933528110385, -0.0000908765941858, -0.0001344494521618 ]
  - [   0.0003261705860496, -0.0000593615695834, -0.0001711184158921 ]
  - [   0.0008912975899875, -0.0004795684944838, -0.0002317177131772 ]
  - [   0.0008913287892938,  0.0003597305621952, -0.0001116301864386 ]
  - [   0.0004118630313314, -0.0002412348985672, -0.0005001695826650 ]
  - [   0.0004176856018603,  0.0001222707796842,  0.0001652054488659 ]
  - [   0.0001841269549914, -0.0000606200192124, -0.0001698415726423 ]
  - [   0.0001934219617397, -0.0000534793362021, -0.0001693535596132 ]
  - [   0.0002088458277285, -0.0000589443370700, -0.0001695128157735 ]
  - [   0.0001925639808178, -0.0000646144617349, -0.0001706602051854 ]
  - [   0.0000988948158920, -0.0000614565797150, -0.0001690536737442 ]
  - [   0.0002747862599790, -0.0000965485814959, -0.0001279208809137 ]
  - [   0.0002751303836703, -0.0000201936345547, -0.0002121748402715 ]
  - [   0.0010971770389006,  0.0000714266716386,  0.0144161880016327 ]
  - [   0.0000858209677972, -0.0002707291860133,  0.0143999382853508 ]
  - [   0.0000759815957281,  0.0004092612653039,  0.0143806859850883 ]
  - [  -0.0001031668434734,  0.0001159486419056,  0.0143275856971741 ]
  - [  -0.0001029917912092,  0.0000218815803237,  0.0144590958952904 ]
  - [   0.0000206020849873,  0.0000672471360303,  0.0143953487277031 ]
  - [   0.0003252105379943,  0.0000579022598686,  0.0143375098705292 ]
  - [  -0.0000569182593608,  0.0000684904152877,  0.0143942907452583 ]
  - [   0.0003235924523324,  0.0000810594356153,  0.0144507437944412 ]
  - [  -0.0002763399388641,  0.0000605208151683,  0.0143495127558708 ]
  - [   0.0000837687402964,  0.0001615744258743,  0.0143310949206352 ]
  - [   0.0000846264883876, -0.0000276784157904,  0.0144554376602173 ]
  - [  -0.0000329416798195,  0.0001068636775017,  0.0144211947917938 ]
  - [  -0.0000321864681609,  0.0000328607857227,  0.0143659263849258 ]
  - [  -0.0000070668520493,  0.0000684149563313,  0.0143939703702927 ]
  - [  -0.0000236794148805, -0.0000971406698227,  0.0143582746386528 ]
  - [  -0.0000139521825986,  0.0000682026147842,  0.0143936872482300 ]
  - [  -0.0000241143025050,  0.0002369210124016,  0.0144280344247818 ]
  - [  -0.0001091035082936, -0.0001557583454996, -0.0143100321292877 ]
  - [   0.0002288341056556, -0.0001127084251493, -0.0142319276928902 ]
  - [   0.0002275404985994, -0.0001404427457601, -0.0144059658050537 ]
  - [   0.0001693910453469, -0.0000518844462931, -0.0143347755074501 ]
  - [   0.0001689766068012, -0.0002024162095040, -0.0143029242753983 ]
  - [   0.0002025368157774, -0.0001277695409954, -0.0143174901604652 ]
  - [  -0.0047456501051784,  0.0025442354381084, -0.0119550451636314 ]
  - [   0.0000364892184734, -0.0001266847830266, -0.0143177062273026 ]
  - [  -0.0048582712188363, -0.0028726579621434, -0.0167587921023369 ]
  - [   0.0001459140330553, -0.0001277481205761, -0.0143185183405876 ]
  - [   0.0001696941908449, -0.0001170451287180, -0.0143104791641235 ]
  - [   0.0001681211870164, -0.0001360094174743, -0.0143274962902069 ]
  - [   0.0001938987988979, -0.0001366082578897, -0.0143188983201981 ]
  - [   0.0001932955347002, -0.0001186926383525, -0.0143191665410995 ]
  - [   0.0001531874295324, -0.0001273097004741, -0.0143188536167145 ]
  - [  -0.0000018998980522, -0.0000410268548876, -0.0144026726484299 ]
  - [   0.0002089445479214, -0.0001261401921511, -0.0143194049596786 ]
  - [   0.0000007152557373, -0.0002095850650221, -0.0142387300729752 ]
- atom:    1
  displacement:
    [  -0.0049992187053121,  0.0086607050715549,  0.0000000000000000 ]
  forces:
  - [   0.0040117590688169, -0.0072667524218559,  0.0291568338871002 ]
  - [   0.0001913118176162, -0.0001075556501746,  0.0291402619332075 ]
  - [   0.0003827530890703,  0.0000029723851185,  0.0290631931275129 ]
  - [   0.0001902340736706, -0.0006324707064778,  0.0290082748979330 ]
  - [  -0.0000651101072435, -0.0002561346627772,  0.0290322285145521 ]
  - [  -0.0000522581103723,  0.0000126273371279,  0.0290841143578291 ]
  - [   0.0003787853347603, -0.0005132826045156,  0.0291609428822994 ]
  - [  -0.0000516446089023,  0.0000127051025629,  0.0290838424116373 ]
  - [  -0.0002587318886071, -0.0003680828958750,  0.0291066393256187 ]
  - [  -0.0001083021052182,  0.0001078713685274,  0.0290839690715075 ]
  - [  -0.0000174753367901,  0.0000230772420764,  0.0291430596262217 ]
  - [  -0.0000535245053470,  0.0000021196901798,  0.0291102472692728 ]
  - [  -0.0000168172919075, -0.0000048843212426,  0.0290490761399269 ]
  - [  -0.0000787961180322, -0.0000119486358017,  0.0290201548486948 ]
  - [  -0.0000430272957601, -0.0000020202714950,  0.0290834046900272 ]
  - [  -0.0000538395106560, -0.0000261729583144,  0.0291178766638041 ]
  - [  -0.0000437712587882, -0.0000022929161787,  0.0290828961879015 ]
  - [  -0.0000418737836299,  0.0000092899426818,  0.0290558114647865 ]
  - [  -0.0003959008608945,  0.0009568597306497, -0.0274805575609207 ]
  - [  -0.0003252639144193,  0.0001131607205025, -0.0289883203804493 ]
  - [  -0.0003398734261282,  0.0001218097895617, -0.0289842598140240 ]
  - [  -0.0003291855973657,  0.0001208650064655, -0.0289871357381344 ]