# Thermal properties / unit cell (natom)

unit:
  temperature:   K
  free_energy:   kJ/mol
  entropy:       J/K/mol
  heat_capacity: J/K/mol

natom: 108  
cutoff_frequency: 0.00000
num_modes: 236196
num_integrated_modes: 236194

zero_point_energy:     446.1094942

thermal_properties:
- temperature:         0.0000000
  free_energy:       446.1094942
  entropy:             0.0000000
  heat_capacity:       0.0000000
  energy:            446.1094942

- temperature:        10.0000000
  free_energy:       446.1014319
  entropy:             2.9580490
  heat_capacity:       9.3427261
  energy:            446.1310124

- temperature:        20.0000000
  free_energy:       445.9760514
  entropy:            27.6827237
  heat_capacity:      83.7318758
  energy:            446.5297058

- temperature:        30.0000000
  free_energy:       445.4381870
  entropy:            84.5427630
  heat_capacity:     209.3523443
  energy:            447.9744699

- temperature:        40.0000000
  free_energy:       444.2113543
  entropy:           163.7246569
  heat_capacity:     349.1275308
  energy:            450.7603405

- temperature:        50.0000000
  free_energy:       442.1162192
  entropy:           257.2821942
  heat_capacity:     496.0117650
  energy:            454.9803289

- temperature:        60.0000000
  free_energy:       439.0314272
  entropy:           361.1729677
  heat_capacity:     649.1696915
  energy:            460.7018053

- temperature:        70.0000000
  free_energy:       434.8663955
  entropy:           472.9852461
  heat_capacity:     805.7627511
  energy:            467.9753627

- temperature:        80.0000000
  free_energy:       429.5518209
  entropy:           590.7719697
  heat_capacity:     961.3182600
  energy:            476.8135785

- temperature:        90.0000000
  free_energy:       423.0370394
  entropy:           712.7388734
  heat_capacity:    1111.4568178
  energy:            487.1835380

- temperature:       100.0000000
  free_energy:       415.2885876
  entropy:           837.2499536
  heat_capacity:    1252.9015595
  energy:            499.0135830

- temperature:       110.0000000
  free_energy:       406.2883133
  entropy:           962.8876759
  heat_capacity:    1383.7009461
  energy:            512.2059576

- temperature:       120.0000000
  free_energy:       396.0309940
  entropy:          1088.4858372
  heat_capacity:    1503.0350404
  energy:            526.6492944

- temperature:       130.0000000
  free_energy:       384.5218105
  entropy:          1213.1273120
  heat_capacity:    1610.8967784
  energy:            542.2283611

- temperature:       140.0000000
  free_energy:       371.7739675
  entropy:          1336.1191555
  heat_capacity:    1707.7935225
  energy:            558.8306493

- temperature:       150.0000000
  free_energy:       357.8066213
  entropy:          1456.9579174
  heat_capacity:    1794.5174903
  energy:            576.3503090

- temperature:       160.0000000
  free_energy:       342.6431660
  entropy:          1575.2936528
  heat_capacity:    1871.9875467
  energy:            594.6901504

- temperature:       170.0000000
  free_energy:       326.3098663
  entropy:          1690.8970648
  heat_capacity:    1941.1486059
  energy:            613.7623673

- temperature:       180.0000000
  free_energy:       308.8347955
  entropy:          1803.6315386
  heat_capacity:    2002.9124180
  energy:            633.4884724

- temperature:       190.0000000
  free_energy:       290.2470268
  entropy:          1913.4303355
  heat_capacity:    2058.1260296
  energy:            653.7987905

- temperature:       200.0000000
  free_energy:       270.5760284
  entropy:          2020.2785052
  heat_capacity:    2107.5577867
  energy:            674.6317294

- temperature:       210.0000000
  free_energy:       249.8512192
  entropy:          2124.1988120
  heat_capacity:    2151.8939135
  energy:            695.9329697

- temperature:       220.0000000
  free_energy:       228.1016481
  entropy:          2225.2409301
  heat_capacity:    2191.7411027
  energy:            717.6546528

- temperature:       230.0000000
  free_energy:       205.3557680
  entropy:          2323.4732362
  heat_capacity:    2227.6322335
  energy:            739.7546123

- temperature:       240.0000000
  free_energy:       181.6412807
  entropy:          2418.9766264
  heat_capacity:    2260.0334585
  energy:            762.1956710

- temperature:       250.0000000
  free_energy:       156.9850363
  entropy:          2511.8398962
  heat_capacity:    2289.3516248
  energy:            784.9450104

- temperature:       260.0000000
  free_energy:       131.4129724
  entropy:          2602.1563140
  heat_capacity:    2315.9414543
  energy:            807.9736141

- temperature:       270.0000000
  free_energy:       104.9500822
  entropy:          2690.0211039
  heat_capacity:    2340.1121873
  energy:            831.2557802

- temperature:       280.0000000
  free_energy:        77.6204045
  entropy:          2775.5296165
  heat_capacity:    2362.1335653
  energy:            854.7686971

- temperature:       290.0000000
  free_energy:        49.4470300
  entropy:          2858.7760187
  heat_capacity:    2382.2411230
  energy:            878.4920754

- temperature:       300.0000000
  free_energy:        20.4521173
  entropy:          2939.8523740
  heat_capacity:    2400.6408151
  energy:            902.4078295

- temperature:       310.0000000
  free_energy:        -9.3430822
  entropy:          3018.8480152
  heat_capacity:    2417.5130315
  energy:            926.4998025

- temperature:       320.0000000
  free_energy:       -39.9181950
  entropy:          3095.8491353
  heat_capacity:    2433.0160621
  energy:            950.7535283

- temperature:       330.0000000
  free_energy:       -71.2536929
  entropy:          3170.9385408
  heat_capacity:    2447.2890788
  energy:            975.1560256

- temperature:       340.0000000
  free_energy:      -103.3308581
  entropy:          3244.1955243
  heat_capacity:    2460.4546964
  energy:            999.6956201

- temperature:       350.0000000
  free_energy:      -136.1317481
  entropy:          3315.6958244
  heat_capacity:    2472.6211701
  energy:           1024.3617904

- temperature:       360.0000000
  free_energy:      -169.6391601
  entropy:          3385.5116489
  heat_capacity:    2483.8842815
  energy:           1049.1450335

- temperature:       370.0000000
  free_energy:      -203.8365957
  entropy:          3453.7117424
  heat_capacity:    2494.3289569
  energy:           1074.0367490

- temperature:       380.0000000
  free_energy:      -238.7082274
  entropy:          3520.3614854
  heat_capacity:    2504.0306586
  energy:           1099.0291370

- temperature:       390.0000000
  free_energy:      -274.2388651
  entropy:          3585.5230139
  heat_capacity:    2513.0565810
  energy:           1124.1151103

- temperature:       400.0000000
  free_energy:      -310.4139241
  entropy:          3649.2553517
  heat_capacity:    2521.4666811
  energy:           1149.2882166

- temperature:       410.0000000
  free_energy:      -347.2193953
  entropy:          3711.6145508
  heat_capacity:    2529.3145682
  energy:           1174.5425705

- temperature:       420.0000000
  free_energy:      -384.6418157
  entropy:          3772.6538339
  heat_capacity:    2536.6482719
  energy:           1199.8727946

- temperature:       430.0000000
  free_energy:      -422.6682410
  entropy:          3832.4237377
  heat_capacity:    2543.5109079
  energy:           1225.2739662

- temperature:       440.0000000
  free_energy:      -461.2862194
  entropy:          3890.9722536
  heat_capacity:    2549.9412553
  energy:           1250.7415722

- temperature:       450.0000000
  free_energy:      -500.4837670
  entropy:          3948.3449649
  heat_capacity:    2555.9742582
  energy:           1276.2714672

- temperature:       460.0000000
  free_energy:      -540.2493440
  entropy:          4004.5851789
  heat_capacity:    2561.6414628
  energy:           1301.8598384

- temperature:       470.0000000
  free_energy:      -580.5718330
  entropy:          4059.7340543
  heat_capacity:    2566.9713985
  energy:           1327.5031726

- temperature:       480.0000000
  free_energy:      -621.4405179
  entropy:          4113.8307217
  heat_capacity:    2571.9899116
  energy:           1353.1982285

- temperature:       490.0000000
  free_energy:      -662.8450643
  entropy:          4166.9123988
  heat_capacity:    2576.7204570
  energy:           1378.9420111

- temperature:       500.0000000
  free_energy:      -704.7755008
  entropy:          4219.0144997
  heat_capacity:    2581.1843549
  energy:           1404.7317490

- temperature:       510.0000000
  free_energy:      -747.2222016
  entropy:          4270.1707370
  heat_capacity:    2585.4010156
  energy:           1430.5648743

- temperature:       520.0000000
  free_energy:      -790.1758699
  entropy:          4320.4132197
  heat_capacity:    2589.3881386
  energy:           1456.4390044

- temperature:       530.0000000
  free_energy:      -833.6275223
  entropy:          4369.7725439
  heat_capacity:    2593.1618879
  energy:           1482.3519260

- temperature:       540.0000000
  free_energy:      -877.5684743
  entropy:          4418.2778789
  heat_capacity:    2596.7370466
  energy:           1508.3015803

- temperature:       550.0000000
  free_energy:      -921.9903261
  entropy:          4465.9570478
  heat_capacity:    2600.1271544
  energy:           1534.2860502

- temperature:       560.0000000
  free_energy:      -966.8849500
  entropy:          4512.8366037
  heat_capacity:    2603.3446297
  energy:           1560.3035481

- temperature:       570.0000000
  free_energy:     -1012.2444774
  entropy:          4558.9418999
  heat_capacity:    2606.4008776
  energy:           1586.3524055

- temperature:       580.0000000
  free_energy:     -1058.0612880
  entropy:          4604.2971573
  heat_capacity:    2609.3063866
  energy:           1612.4310633

- temperature:       590.0000000
  free_energy:     -1104.3279977
  entropy:          4648.9255267
  heat_capacity:    2612.0708146
  energy:           1638.5380630

- temperature:       600.0000000
  free_energy:     -1151.0374494
  entropy:          4692.8491475
  heat_capacity:    2614.7030656
  energy:           1664.6720390

- temperature:       610.0000000
  free_energy:     -1198.1827022
  entropy:          4736.0892024
  heat_capacity:    2617.2113587
  energy:           1690.8317112

- temperature:       620.0000000
  free_energy:     -1245.7570226
  entropy:          4778.6659694
  heat_capacity:    2619.6032899
  energy:           1717.0158784

- temperature:       630.0000000
  free_energy:     -1293.7538755
  entropy:          4820.5988700
  heat_capacity:    2621.8858870
  energy:           1743.2234126

- temperature:       640.0000000
  free_energy:     -1342.1669159
  entropy:          4861.9065146
  heat_capacity:    2624.0656598
  energy:           1769.4532534

- temperature:       650.0000000
  free_energy:     -1390.9899812
  entropy:          4902.6067452
  heat_capacity:    2626.1486444
  energy:           1795.7044032

- temperature:       660.0000000
  free_energy:     -1440.2170832
  entropy:          4942.7166752
  heat_capacity:    2628.1404442
  energy:           1821.9759224

- temperature:       670.0000000
  free_energy:     -1489.8424018
  entropy:          4982.2527274
  heat_capacity:    2630.0462658
  energy:           1848.2669256

- temperature:       680.0000000
  free_energy:     -1539.8602775
  entropy:          5021.2306688
  heat_capacity:    2631.8709522
  energy:           1874.5765773

- temperature:       690.0000000
  free_energy:     -1590.2652054
  entropy:          5059.6656443
  heat_capacity:    2633.6190127
  energy:           1900.9040892

- temperature:       700.0000000
  free_energy:     -1641.0518291
  entropy:          5097.5722075
  heat_capacity:    2635.2946496
  energy:           1927.2487162

- temperature:       710.0000000
  free_energy:     -1692.2149348
  entropy:          5134.9643503
  heat_capacity:    2636.9017831
  energy:           1953.6097539

- temperature:       720.0000000
  free_energy:     -1743.7494462
  entropy:          5171.8555305
  heat_capacity:    2638.4440736
  energy:           1979.9865358

- temperature:       730.0000000
  free_energy:     -1795.6504188
  entropy:          5208.2586979
  heat_capacity:    2639.9249414
  energy:           2006.3784306

- temperature:       740.0000000
  free_energy:     -1847.9130351
  entropy:          5244.1863184
  heat_capacity:    2641.3475860
  energy:           2032.7848405

- temperature:       750.0000000
  free_energy:     -1900.5326001
  entropy:          5279.6503978
  heat_capacity:    2642.7150022
  energy:           2059.2051983

- temperature:       760.0000000
  free_energy:     -1953.5045365
  entropy:          5314.6625031
  heat_capacity:    2644.0299961
  energy:           2085.6389658

- temperature:       770.0000000
  free_energy:     -2006.8243808
  entropy:          5349.2337832
  heat_capacity:    2645.2951986
  energy:           2112.0856323

- temperature:       780.0000000
  free_energy:     -2060.4877786
  entropy:          5383.3749881
  heat_capacity:    2646.5130787
  energy:           2138.5447121

- temperature:       790.0000000
  free_energy:     -2114.4904816
  entropy:          5417.0964878
  heat_capacity:    2647.6859549
  energy:           2165.0157438

- temperature:       800.0000000
  free_energy:     -2168.8283428
  entropy:          5450.4082890
  heat_capacity:    2648.8160062
  energy:           2191.4982885

- temperature:       810.0000000
  free_energy:     -2223.4973139
  entropy:          5483.3200518
  heat_capacity:    2649.9052822
  energy:           2217.9919281

- temperature:       820.0000000
  free_energy:     -2278.4934415
  entropy:          5515.8411050
  heat_capacity:    2650.9557116
  energy:           2244.4962646

- temperature:       830.0000000
  free_energy:     -2333.8128637
  entropy:          5547.9804609
  heat_capacity:    2651.9691112
  energy:           2271.0109189

- temperature:       840.0000000
  free_energy:     -2389.4518074
  entropy:          5579.7468293
  heat_capacity:    2652.9471932
  energy:           2297.5355291

- temperature:       850.0000000
  free_energy:     -2445.4065851
  entropy:          5611.1486300
  heat_capacity:    2653.8915724
  energy:           2324.0697504

- temperature:       860.0000000
  free_energy:     -2501.6735920
  entropy:          5642.1940062
  heat_capacity:    2654.8037730
  energy:           2350.6132533

- temperature:       870.0000000
  free_energy:     -2558.2493034
  entropy:          5672.8908354
  heat_capacity:    2655.6852341
  energy:           2377.1657234

- temperature:       880.0000000
  free_energy:     -2615.1302723
  entropy:          5703.2467414
  heat_capacity:    2656.5373158
  energy:           2403.7268601

- temperature:       890.0000000
  free_energy:     -2672.3131265
  entropy:          5733.2691040
  heat_capacity:    2657.3613039
  energy:           2430.2963761

- temperature:       900.0000000
  free_energy:     -2729.7945664
  entropy:          5762.9650700
  heat_capacity:    2658.1584150
  energy:           2456.8739966

- temperature:       910.0000000
  free_energy:     -2787.5713630
  entropy:          5792.3415622
  heat_capacity:    2658.9298010
  energy:           2483.4594586

- temperature:       920.0000000
  free_energy:     -2845.6403551
  entropy:          5821.4052887
  heat_capacity:    2659.6765527
  energy:           2510.0525105

- temperature:       930.0000000
  free_energy:     -2903.9984479
  entropy:          5850.1627515
  heat_capacity:    2660.3997040
  energy:           2536.6529110

- temperature:       940.0000000
  free_energy:     -2962.6426103
  entropy:          5878.6202548
  heat_capacity:    2661.1002355
  energy:           2563.2604292

- temperature:       950.0000000
  free_energy:     -3021.5698735
  entropy:          5906.7839126
  heat_capacity:    2661.7790774
  energy:           2589.8748434

- temperature:       960.0000000
  free_energy:     -3080.7773289
  entropy:          5934.6596565
  heat_capacity:    2662.4371128
  energy:           2616.4959414

- temperature:       970.0000000
  free_energy:     -3140.2621262
  entropy:          5962.2532426
  heat_capacity:    2663.0751803
  energy:           2643.1235191

- temperature:       980.0000000
  free_energy:     -3200.0214719
  entropy:          5989.5702581
  heat_capacity:    2663.6940772
  energy:           2669.7573811

- temperature:       990.0000000
  free_energy:     -3260.0526275
  entropy:          6016.6161281
  heat_capacity:    2664.2945612
  energy:           2696.3973393

- temperature:      1000.0000000
  free_energy:     -3320.3529082
  entropy:          6043.3961215
  heat_capacity:    2664.8773531
  energy:           2723.0432133
