# Thermal properties / unit cell (natom)

unit:
  temperature:   K
  free_energy:   kJ/mol
  entropy:       J/K/mol
  heat_capacity: J/K/mol

natom: 4    
cutoff_frequency: 0.00000
num_modes: 559872
num_integrated_modes: 559869

zero_point_energy:      13.2991861

thermal_properties:
- temperature:         0.0000000
  free_energy:        13.2991861
  entropy:             0.0000000
  heat_capacity:       0.0000000
  energy:             13.2991861

- temperature:        10.0000000
  free_energy:        13.2975658
  entropy:             0.6209490
  heat_capacity:       1.7120400
  energy:             13.3037753

- temperature:        20.0000000
  free_energy:        13.2784250
  entropy:             3.5968921
  heat_capacity:       8.0424159
  energy:             13.3503629

- temperature:        30.0000000
  free_energy:        13.2203051
  entropy:             8.1847194
  heat_capacity:      14.9556883
  energy:             13.4658467

- temperature:        40.0000000
  free_energy:        13.1127916
  entropy:            13.3795349
  heat_capacity:      21.4443186
  energy:             13.6479730

- temperature:        50.0000000
  free_energy:        12.9517741
  entropy:            18.8623258
  heat_capacity:      27.9601843
  energy:             13.8948903

- temperature:        60.0000000
  free_energy:        12.7348888
  entropy:            24.5422679
  heat_capacity:      34.5427145
  energy:             14.2074248

- temperature:        70.0000000
  free_energy:        12.4604894
  entropy:            30.3537787
  heat_capacity:      40.9786175
  energy:             14.5852539

- temperature:        80.0000000
  free_energy:        12.1276076
  entropy:            36.2270917
  heat_capacity:      47.0507771
  energy:             15.0257750

- temperature:        90.0000000
  free_energy:        11.7359641
  entropy:            42.0958193
  heat_capacity:      52.6211853
  energy:             15.5245878

- temperature:       100.0000000
  free_energy:        11.2858935
  entropy:            47.9043184
  heat_capacity:      57.6314799
  energy:             16.0763253

- temperature:       110.0000000
  free_energy:        10.7782212
  entropy:            53.6101809
  heat_capacity:      62.0799807
  energy:             16.6753411

- temperature:       120.0000000
  free_energy:        10.2141328
  entropy:            59.1835324
  heat_capacity:      65.9985116
  energy:             17.3161566

- temperature:       130.0000000
  free_energy:         9.5950579
  entropy:            64.6049790
  heat_capacity:      69.4353356
  energy:             17.9937051

- temperature:       140.0000000
  free_energy:         8.9225777
  entropy:            69.8632828
  heat_capacity:      72.4442925
  energy:             18.7034372

- temperature:       150.0000000
  free_energy:         8.1983538
  entropy:            74.9532583
  heat_capacity:      75.0785763
  energy:             19.4413425

- temperature:       160.0000000
  free_energy:         7.4240768
  entropy:            79.8740516
  heat_capacity:      77.3875528
  energy:             20.2039250

- temperature:       170.0000000
  free_energy:         6.6014297
  entropy:            84.6278082
  heat_capacity:      79.4154138
  energy:             20.9881571

- temperature:       180.0000000
  free_energy:         5.7320637
  entropy:            89.2186787
  heat_capacity:      81.2008683
  energy:             21.7914258

- temperature:       190.0000000
  free_energy:         4.8175811
  entropy:            93.6520918
  heat_capacity:      82.7773751
  energy:             22.6114785

- temperature:       200.0000000
  free_energy:         3.8595261
  entropy:            97.9342342
  heat_capacity:      84.1736252
  energy:             23.4463730

- temperature:       210.0000000
  free_energy:         2.8593788
  entropy:           102.0716833
  heat_capacity:      85.4141127
  energy:             24.2944322

- temperature:       220.0000000
  free_energy:         1.8185524
  entropy:           106.0711523
  heat_capacity:      86.5197047
  energy:             25.1542059

- temperature:       230.0000000
  free_energy:         0.7383934
  entropy:           109.9393167
  heat_capacity:      87.5081701
  energy:             26.0244362

- temperature:       240.0000000
  free_energy:        -0.3798180
  entropy:           113.6826984
  heat_capacity:      88.3946501
  energy:             26.9040296

- temperature:       250.0000000
  free_energy:        -1.5348657
  entropy:           117.3075928
  heat_capacity:      89.1920654
  energy:             27.7920325

- temperature:       260.0000000
  free_energy:        -2.7255950
  entropy:           120.8200233
  heat_capacity:      89.9114637
  energy:             28.6876110

- temperature:       270.0000000
  free_energy:        -3.9509104
  entropy:           124.2257179
  heat_capacity:      90.5623138
  energy:             29.5900335

- temperature:       280.0000000
  free_energy:        -5.2097717
  entropy:           127.5300992
  heat_capacity:      91.1527526
  energy:             30.4986561

- temperature:       290.0000000
  free_energy:        -6.5011917
  entropy:           130.7382840
  heat_capacity:      91.6897916
  energy:             31.4129106

- temperature:       300.0000000
  free_energy:        -7.8242328
  entropy:           133.8550900
  heat_capacity:      92.1794902
  energy:             32.3322942

- temperature:       310.0000000
  free_energy:        -9.1780041
  entropy:           136.8850461
  heat_capacity:      92.6270999
  energy:             33.2563602

- temperature:       320.0000000
  free_energy:       -10.5616585
  entropy:           139.8324051
  heat_capacity:      93.0371858
  energy:             34.1847112

- temperature:       330.0000000
  free_energy:       -11.9743902
  entropy:           142.7011586
  heat_capacity:      93.4137273
  energy:             35.1169922

- temperature:       340.0000000
  free_energy:       -13.4154321
  entropy:           145.4950520
  heat_capacity:      93.7602037
  energy:             36.0528855

- temperature:       350.0000000
  free_energy:       -14.8840534
  entropy:           148.2175990
  heat_capacity:      94.0796653
  energy:             36.9921062

- temperature:       360.0000000
  free_energy:       -16.3795573
  entropy:           150.8720974
  heat_capacity:      94.3747936
  energy:             37.9343978

- temperature:       370.0000000
  free_energy:       -17.9012789
  entropy:           153.4616427
  heat_capacity:      94.6479526
  energy:             38.8795289

- temperature:       380.0000000
  free_energy:       -19.4485834
  entropy:           155.9891419
  heat_capacity:      94.9012315
  energy:             39.8272906

- temperature:       390.0000000
  free_energy:       -21.0208640
  entropy:           158.4573269
  heat_capacity:      95.1364816
  energy:             40.7774935

- temperature:       400.0000000
  free_energy:       -22.6175408
  entropy:           160.8687659
  heat_capacity:      95.3553472
  energy:             41.7299656

- temperature:       410.0000000
  free_energy:       -24.2380583
  entropy:           163.2258755
  heat_capacity:      95.5592926
  energy:             42.6845507

- temperature:       420.0000000
  free_energy:       -25.8818848
  entropy:           165.5309306
  heat_capacity:      95.7496244
  energy:             43.6411061

- temperature:       430.0000000
  free_energy:       -27.5485105
  entropy:           167.7860749
  heat_capacity:      95.9275115
  energy:             44.5995017

- temperature:       440.0000000
  free_energy:       -29.2374466
  entropy:           169.9933295
  heat_capacity:      96.0940015
  energy:             45.5596184

- temperature:       450.0000000
  free_energy:       -30.9482239
  entropy:           172.1546016
  heat_capacity:      96.2500358
  energy:             46.5213469

- temperature:       460.0000000
  free_energy:       -32.6803914
  entropy:           174.2716923
  heat_capacity:      96.3964617
  energy:             47.4845871

- temperature:       470.0000000
  free_energy:       -34.4335161
  entropy:           176.3463037
  heat_capacity:      96.5340431
  energy:             48.4492466

- temperature:       480.0000000
  free_energy:       -36.2071813
  entropy:           178.3800459
  heat_capacity:      96.6634708
  energy:             49.4152407

- temperature:       490.0000000
  free_energy:       -38.0009859
  entropy:           180.3744426
  heat_capacity:      96.7853699
  energy:             50.3824910

- temperature:       500.0000000
  free_energy:       -39.8145438
  entropy:           182.3309375
  heat_capacity:      96.9003073
  energy:             51.3509249

- temperature:       510.0000000
  free_energy:       -41.6474829
  entropy:           184.2508990
  heat_capacity:      97.0087984
  energy:             52.3204756

- temperature:       520.0000000
  free_energy:       -43.4994443
  entropy:           186.1356256
  heat_capacity:      97.1113118
  energy:             53.2910810

- temperature:       530.0000000
  free_energy:       -45.3700820
  entropy:           187.9863499
  heat_capacity:      97.2082750
  energy:             54.2626834

- temperature:       540.0000000
  free_energy:       -47.2590619
  entropy:           189.8042429
  heat_capacity:      97.3000781
  energy:             55.2352293

- temperature:       550.0000000
  free_energy:       -49.1660612
  entropy:           191.5904184
  heat_capacity:      97.3870779
  energy:             56.2086689

- temperature:       560.0000000
  free_energy:       -51.0907681
  entropy:           193.3459357
  heat_capacity:      97.4696012
  energy:             57.1829559

- temperature:       570.0000000
  free_energy:       -53.0328811
  entropy:           195.0718037
  heat_capacity:      97.5479475
  energy:             58.1580470

- temperature:       580.0000000
  free_energy:       -54.9921085
  entropy:           196.7689835
  heat_capacity:      97.6223920
  energy:             59.1339019

- temperature:       590.0000000
  free_energy:       -56.9681682
  entropy:           198.4383913
  heat_capacity:      97.6931877
  energy:             60.1104827

- temperature:       600.0000000
  free_energy:       -58.9607867
  entropy:           200.0809016
  heat_capacity:      97.7605677
  energy:             61.0877542

- temperature:       610.0000000
  free_energy:       -60.9696993
  entropy:           201.6973487
  heat_capacity:      97.8247467
  energy:             62.0656834

- temperature:       620.0000000
  free_energy:       -62.9946495
  entropy:           203.2885300
  heat_capacity:      97.8859230
  energy:             63.0442392

- temperature:       630.0000000
  free_energy:       -65.0353883
  entropy:           204.8552075
  heat_capacity:      97.9442800
  energy:             64.0233925

- temperature:       640.0000000
  free_energy:       -67.0916744
  entropy:           206.3981098
  heat_capacity:      97.9999872
  energy:             65.0031159

- temperature:       650.0000000
  free_energy:       -69.1632735
  entropy:           207.9179345
  heat_capacity:      98.0532017
  energy:             65.9833839

- temperature:       660.0000000
  free_energy:       -71.2499584
  entropy:           209.4153493
  heat_capacity:      98.1040692
  energy:             66.9641722

- temperature:       670.0000000
  free_energy:       -73.3515080
  entropy:           210.8909938
  heat_capacity:      98.1527250
  energy:             67.9454579

- temperature:       680.0000000
  free_energy:       -75.4677077
  entropy:           212.3454815
  heat_capacity:      98.1992948
  energy:             68.9272197

- temperature:       690.0000000
  free_energy:       -77.5983490
  entropy:           213.7794004
  heat_capacity:      98.2438955
  energy:             69.9094372

- temperature:       700.0000000
  free_energy:       -79.7432290
  entropy:           215.1933149
  heat_capacity:      98.2866361
  energy:             70.8920914

- temperature:       710.0000000
  free_energy:       -81.9021504
  entropy:           216.5877670
  heat_capacity:      98.3276181
  energy:             71.8751641

- temperature:       720.0000000
  free_energy:       -84.0749212
  entropy:           217.9632770
  heat_capacity:      98.3669362
  energy:             72.8586382

- temperature:       730.0000000
  free_energy:       -86.2613545
  entropy:           219.3203453
  heat_capacity:      98.4046788
  energy:             73.8424976

- temperature:       740.0000000
  free_energy:       -88.4612683
  entropy:           220.6594529
  heat_capacity:      98.4409286
  energy:             74.8267268

- temperature:       750.0000000
  free_energy:       -90.6744853
  entropy:           221.9810622
  heat_capacity:      98.4757631
  energy:             75.8113114

- temperature:       760.0000000
  free_energy:       -92.9008327
  entropy:           223.2856188
  heat_capacity:      98.5092546
  energy:             76.7962376

- temperature:       770.0000000
  free_energy:       -95.1401422
  entropy:           224.5735513
  heat_capacity:      98.5414710
  energy:             77.7814923

- temperature:       780.0000000
  free_energy:       -97.3922497
  entropy:           225.8452727
  heat_capacity:      98.5724760
  energy:             78.7670630

- temperature:       790.0000000
  free_energy:       -99.6569950
  entropy:           227.1011809
  heat_capacity:      98.6023292
  energy:             79.7529380

- temperature:       800.0000000
  free_energy:      -101.9342219
  entropy:           228.3416597
  heat_capacity:      98.6310869
  energy:             80.7391059

- temperature:       810.0000000
  free_energy:      -104.2237780
  entropy:           229.5670792
  heat_capacity:      98.6588018
  energy:             81.7255562

- temperature:       820.0000000
  free_energy:      -106.5255144
  entropy:           230.7777965
  heat_capacity:      98.6855236
  energy:             82.7122787

- temperature:       830.0000000
  free_energy:      -108.8392860
  entropy:           231.9741561
  heat_capacity:      98.7112989
  energy:             83.6992635

- temperature:       840.0000000
  free_energy:      -111.1649508
  entropy:           233.1564910
  heat_capacity:      98.7361717
  energy:             84.6865016

- temperature:       850.0000000
  free_energy:      -113.5023702
  entropy:           234.3251227
  heat_capacity:      98.7601837
  energy:             85.6739841

- temperature:       860.0000000
  free_energy:      -115.8514086
  entropy:           235.4803618
  heat_capacity:      98.7833738
  energy:             86.6617026

- temperature:       870.0000000
  free_energy:      -118.2119338
  entropy:           236.6225089
  heat_capacity:      98.8057792
  energy:             87.6496490

- temperature:       880.0000000
  free_energy:      -120.5838161
  entropy:           237.7518543
  heat_capacity:      98.8274346
  energy:             88.6378156

- temperature:       890.0000000
  free_energy:      -122.9669291
  entropy:           238.8686791
  heat_capacity:      98.8483731
  energy:             89.6261953

- temperature:       900.0000000
  free_energy:      -125.3611489
  entropy:           239.9732552
  heat_capacity:      98.8686259
  energy:             90.6147808

- temperature:       910.0000000
  free_energy:      -127.7663543
  entropy:           241.0658460
  heat_capacity:      98.8882225
  energy:             91.6035656

- temperature:       920.0000000
  free_energy:      -130.1824267
  entropy:           242.1467064
  heat_capacity:      98.9071909
  energy:             92.5925432

- temperature:       930.0000000
  free_energy:      -132.6092501
  entropy:           243.2160834
  heat_capacity:      98.9255575
  energy:             93.5817074

- temperature:       940.0000000
  free_energy:      -135.0467109
  entropy:           244.2742163
  heat_capacity:      98.9433476
  energy:             94.5710524

- temperature:       950.0000000
  free_energy:      -137.4946977
  entropy:           245.3213371
  heat_capacity:      98.9605849
  energy:             95.5605725

- temperature:       960.0000000
  free_energy:      -139.9531017
  entropy:           246.3576709
  heat_capacity:      98.9772919
  energy:             96.5502623

- temperature:       970.0000000
  free_energy:      -142.4218159
  entropy:           247.3834357
  heat_capacity:      98.9934903
  energy:             97.5401167

- temperature:       980.0000000
  free_energy:      -144.9007359
  entropy:           248.3988433
  heat_capacity:      99.0092003
  energy:             98.5301305

- temperature:       990.0000000
  free_energy:      -147.3897590
  entropy:           249.4040991
  heat_capacity:      99.0244414
  energy:             99.5202991

- temperature:      1000.0000000
  free_energy:      -149.8887847
  entropy:           250.3994025
  heat_capacity:      99.0392320
  energy:            100.5106178
