phonopy:
  version: "2.37.1"
  frequency_unit_conversion_factor: 15.633302
  symmetry_tolerance: 1.00000e-05

space_group:
  type: "I4/m"
  number: 87
  Hall_symbol: "-I 4"

primitive_matrix:
- [ -0.000000000000000, -1.000000000000000,  0.000000000000000 ]
- [ -1.000000000000000, -0.000000000000000, -0.000000000000000 ]
- [  0.000000000000000,  0.000000000000000, -1.000000000000000 ]

supercell_matrix:
- [   2,   0,   0 ]
- [   0,   2,   0 ]
- [   0,   0,   2 ]

primitive_cell:
  lattice:
  - [     3.932332607295447,    -4.224336464318282,     0.000000000000000 ] # a
  - [    -5.771330854211006,    -0.000000000000000,     0.000000000000000 ] # b
  - [     0.919499000116460,     2.112168168103680,    -5.291646646888818 ] # c
  points:
  - symbol: Li # 1
    coordinates: [  0.999999997253598,  0.999999997737505,  0.999999998807806 ]
    mass: 6.940000
  - symbol: Sn # 2
    coordinates: [  0.605965831265272,  0.794315792801165,  0.400281620433179 ]
    mass: 118.710000
  - symbol: Sn # 3
    coordinates: [  0.794315791016144,  0.394034169989197,  0.188349960294120 ]
    mass: 118.710000
  - symbol: Sn # 4
    coordinates: [  0.394034171281868,  0.205684210998612,  0.599718382491972 ]
    mass: 118.710000
  - symbol: Sn # 5
    coordinates: [  0.205684209164547,  0.605965828447857,  0.811650037953001 ]
    mass: 118.710000
  reciprocal_lattice: # without 2pi
  - [     0.000000000000000,    -0.236723567937048,    -0.094488543586056 ] # a*
  - [    -0.173270260406290,    -0.161293093158048,    -0.094488540460442 ] # b*
  - [    -0.000000000000000,    -0.000000000000000,    -0.188977092903197 ] # c*

unit_cell:
  lattice:
  - [     5.771330854211007,     0.000000000000000,     0.000000000000000 ] # a
  - [    -3.932332607295448,     4.224336464318282,     0.000000000000000 ] # b
  - [    -0.919499000116459,    -2.112168168103681,     5.291646646888818 ] # c
  points:
  - symbol: Li # 1
    coordinates: [  0.000000002262495,  0.000000002746402,  0.000000001192194 ]
    mass: 6.940000
    reduced_to: 1
  - symbol: Sn # 2
    coordinates: [  0.205684207198835,  0.394034168734728,  0.599718379566821 ]
    mass: 118.710000
    reduced_to: 2
  - symbol: Sn # 3
    coordinates: [  0.605965830010803,  0.205684208983856,  0.811650039705880 ]
    mass: 118.710000
    reduced_to: 3
  - symbol: Sn # 4
    coordinates: [  0.794315789001388,  0.605965828718132,  0.400281617508028 ]
    mass: 118.710000
    reduced_to: 4
  - symbol: Sn # 5
    coordinates: [  0.394034171552143,  0.794315790835453,  0.188349962046999 ]
    mass: 118.710000
    reduced_to: 5

supercell:
  lattice:
  - [    11.542661708422013,     0.000000000000000,     0.000000000000000 ] # a
  - [    -7.864665214590896,     8.448672928636563,     0.000000000000000 ] # b
  - [    -1.838998000232917,    -4.224336336207362,    10.583293293777636 ] # c
  points:
  - symbol: Li # 1
    coordinates: [  0.000000001131247,  0.000000001373201,  0.000000000596097 ]
    mass: 6.940000
    reduced_to: 1
  - symbol: Li # 2
    coordinates: [  0.500000001131247,  0.000000001373201,  0.000000000596097 ]
    mass: 6.940000
    reduced_to: 1
  - symbol: Li # 3
    coordinates: [  0.000000001131247,  0.500000001373201,  0.000000000596097 ]
    mass: 6.940000
    reduced_to: 1
  - symbol: Li # 4
    coordinates: [  0.500000001131247,  0.500000001373201,  0.000000000596097 ]
    mass: 6.940000
    reduced_to: 1
  - symbol: Li # 5
    coordinates: [  0.000000001131247,  0.000000001373201,  0.500000000596097 ]
    mass: 6.940000
    reduced_to: 1
  - symbol: Li # 6
    coordinates: [  0.500000001131247,  0.000000001373201,  0.500000000596097 ]
    mass: 6.940000
    reduced_to: 1
  - symbol: Li # 7
    coordinates: [  0.000000001131247,  0.500000001373201,  0.500000000596097 ]
    mass: 6.940000
    reduced_to: 1
  - symbol: Li # 8
    coordinates: [  0.500000001131247,  0.500000001373201,  0.500000000596097 ]
    mass: 6.940000
    reduced_to: 1
  - symbol: Sn # 9
    coordinates: [  0.102842103599418,  0.197017084367364,  0.299859189783410 ]
    mass: 118.710000
    reduced_to: 9
  - symbol: Sn # 10
    coordinates: [  0.602842103599418,  0.197017084367364,  0.299859189783410 ]
    mass: 118.710000
    reduced_to: 9
  - symbol: Sn # 11
    coordinates: [  0.102842103599418,  0.697017084367364,  0.299859189783410 ]
    mass: 118.710000
    reduced_to: 9
  - symbol: Sn # 12
    coordinates: [  0.602842103599418,  0.697017084367364,  0.299859189783410 ]
    mass: 118.710000
    reduced_to: 9
  - symbol: Sn # 13
    coordinates: [  0.102842103599418,  0.197017084367364,  0.799859189783410 ]
    mass: 118.710000
    reduced_to: 9
  - symbol: Sn # 14
    coordinates: [  0.602842103599418,  0.197017084367364,  0.799859189783410 ]
    mass: 118.710000
    reduced_to: 9
  - symbol: Sn # 15
    coordinates: [  0.102842103599418,  0.697017084367364,  0.799859189783410 ]
    mass: 118.710000
    reduced_to: 9
  - symbol: Sn # 16
    coordinates: [  0.602842103599418,  0.697017084367364,  0.799859189783410 ]
    mass: 118.710000
    reduced_to: 9
  - symbol: Sn # 17
    coordinates: [  0.302982915005401,  0.102842104491928,  0.405825019852940 ]
    mass: 118.710000
    reduced_to: 17
  - symbol: Sn # 18
    coordinates: [  0.802982915005402,  0.102842104491928,  0.405825019852940 ]
    mass: 118.710000
    reduced_to: 17
  - symbol: Sn # 19
    coordinates: [  0.302982915005401,  0.602842104491928,  0.405825019852940 ]
    mass: 118.710000
    reduced_to: 17
  - symbol: Sn # 20
    coordinates: [  0.802982915005402,  0.602842104491928,  0.405825019852940 ]
    mass: 118.710000
    reduced_to: 17
  - symbol: Sn # 21
    coordinates: [  0.302982915005401,  0.102842104491928,  0.905825019852940 ]
    mass: 118.710000
    reduced_to: 17
  - symbol: Sn # 22
    coordinates: [  0.802982915005402,  0.102842104491928,  0.905825019852940 ]
    mass: 118.710000
    reduced_to: 17
  - symbol: Sn # 23
    coordinates: [  0.302982915005401,  0.602842104491928,  0.905825019852940 ]
    mass: 118.710000
    reduced_to: 17
  - symbol: Sn # 24
    coordinates: [  0.802982915005402,  0.602842104491928,  0.905825019852940 ]
    mass: 118.710000
    reduced_to: 17
  - symbol: Sn # 25
    coordinates: [  0.397157894500694,  0.302982914359066,  0.200140808754014 ]
    mass: 118.710000
    reduced_to: 25
  - symbol: Sn # 26
    coordinates: [  0.897157894500694,  0.302982914359066,  0.200140808754014 ]
    mass: 118.710000
    reduced_to: 25
  - symbol: Sn # 27
    coordinates: [  0.397157894500694,  0.802982914359066,  0.200140808754014 ]
    mass: 118.710000
    reduced_to: 25
  - symbol: Sn # 28
    coordinates: [  0.897157894500694,  0.802982914359066,  0.200140808754014 ]
    mass: 118.710000
    reduced_to: 25
  - symbol: Sn # 29
    coordinates: [  0.397157894500694,  0.302982914359066,  0.700140808754014 ]
    mass: 118.710000
    reduced_to: 25
  - symbol: Sn # 30
    coordinates: [  0.897157894500694,  0.302982914359066,  0.700140808754014 ]
    mass: 118.710000
    reduced_to: 25
  - symbol: Sn # 31
    coordinates: [  0.397157894500694,  0.802982914359066,  0.700140808754014 ]
    mass: 118.710000
    reduced_to: 25
  - symbol: Sn # 32
    coordinates: [  0.897157894500694,  0.802982914359066,  0.700140808754014 ]
    mass: 118.710000
    reduced_to: 25
  - symbol: Sn # 33
    coordinates: [  0.197017085776072,  0.397157895417726,  0.094174981023499 ]
    mass: 118.710000
    reduced_to: 33
  - symbol: Sn # 34
    coordinates: [  0.697017085776072,  0.397157895417726,  0.094174981023499 ]
    mass: 118.710000
    reduced_to: 33
  - symbol: Sn # 35
    coordinates: [  0.197017085776072,  0.897157895417726,  0.094174981023499 ]
    mass: 118.710000
    reduced_to: 33
  - symbol: Sn # 36
    coordinates: [  0.697017085776072,  0.897157895417726,  0.094174981023499 ]
    mass: 118.710000
    reduced_to: 33
  - symbol: Sn # 37
    coordinates: [  0.197017085776072,  0.397157895417726,  0.594174981023499 ]
    mass: 118.710000
    reduced_to: 33
  - symbol: Sn # 38
    coordinates: [  0.697017085776072,  0.397157895417726,  0.594174981023499 ]
    mass: 118.710000
    reduced_to: 33
  - symbol: Sn # 39
    coordinates: [  0.197017085776072,  0.897157895417726,  0.594174981023499 ]
    mass: 118.710000
    reduced_to: 33
  - symbol: Sn # 40
    coordinates: [  0.697017085776072,  0.897157895417726,  0.594174981023499 ]
    mass: 118.710000
    reduced_to: 33

displacements:
- atom:    1
  displacement:
    [   0.0100000000000000,  0.0000000000000000,  0.0000000000000000 ]
  forces:
  - [  -0.0124194277450442, -0.0000623485248070,  0.0000001870794222 ]
  - [   0.0001658272813074, -0.0000099340395536, -0.0000084646162577 ]
  - [   0.0001323716132902, -0.0000405541795772, -0.0000102145131677 ]
  - [  -0.0003625543613452,  0.0006319509702735,  0.0000008841161616 ]
  - [   0.0000518648885190,  0.0000193412415683,  0.0000013592652977 ]
  - [  -0.0000738434027880,  0.0000322922132909, -0.0000877594575286 ]
  - [  -0.0000171703286469,  0.0000071348622441,  0.0000883881002665 ]
  - [   0.0000490267993882,  0.0000177872134373,  0.0000190974678844 ]
  - [  -0.0122939739376307,  0.0052013625390828, -0.0055413143709302 ]
  - [  -0.0123553005978465,  0.0054022781550884, -0.0047756340354681 ]
  - [  -0.0123916286975145,  0.0053622345440090, -0.0047877104952931 ]
  - [  -0.0124330893158913,  0.0055057932622731, -0.0049119088798761 ]
  - [  -0.0126435197889805,  0.0054832031019032, -0.0047489386051893 ]
  - [  -0.0124253071844578,  0.0054096379317343, -0.0048778941854835 ]
  - [  -0.0119856456294656,  0.0051662921905518, -0.0051464457064867 ]
  - [  -0.0116219287738204,  0.0063868695870042, -0.0033153668045998 ]
  - [   0.0044583939015865, -0.0019945502281189, -0.0132777485996485 ]
  - [   0.0045151808299124, -0.0019252221100032, -0.0136096868664026 ]
  - [   0.0044717756099999, -0.0019956873729825, -0.0135958604514599 ]
  - [   0.0044741230085492, -0.0019474560394883, -0.0135701978579164 ]
  - [   0.0071638543158770, -0.0009254400501959, -0.0145478071644902 ]
  - [   0.0064200963824987, -0.0029429541900754, -0.0129596833139658 ]
  - [   0.0044899336062372, -0.0018604483921081, -0.0135989990085363 ]
  - [   0.0046967994421721, -0.0028826082125306, -0.0139516703784466 ]
  - [   0.0132156582549214, -0.0044080670922995,  0.0064209098927677 ]
  - [   0.0128406845033169, -0.0056400508619845,  0.0045707905665040 ]
  - [   0.0124086430296302, -0.0053990301676095,  0.0048362733796239 ]
  - [   0.0121875386685133, -0.0053118914365768,  0.0049543632194400 ]
  - [   0.0123981591314077, -0.0053031258285046,  0.0048008710145950 ]
  - [   0.0124421026557684, -0.0054459152743220,  0.0049219382926822 ]
  - [   0.0124728493392467, -0.0054076951928437,  0.0049357041716576 ]
  - [   0.0125319566577673, -0.0056065469980240,  0.0041751875542104 ]
  - [  -0.0042042834684253,  0.0009923321194947,  0.0131292957812548 ]
  - [  -0.0044160489924252,  0.0020175608806312,  0.0134816244244576 ]
  - [  -0.0024285048712045,  0.0009043184109032,  0.0141441263258457 ]
  - [  -0.0018164010252804,  0.0029190550558269,  0.0125663056969643 ]
  - [  -0.0044324258342385,  0.0019301269203424,  0.0135114174336195 ]
  - [  -0.0044325282797217,  0.0018828809261322,  0.0134873334318399 ]
  - [  -0.0043886220082641,  0.0019525503739715,  0.0134722897782922 ]
  - [  -0.0044446191750467,  0.0018845475278795,  0.0138050103560090 ]
- atom:    9
  displacement:
    [   0.0100000000000000,  0.0000000000000000,  0.0000000000000000 ]
  forces:
  - [   0.0001170731848106, -0.0002039002283709, -0.0005919053801335 ]
  - [   0.0000581061176490, -0.0000115035945782,  0.0000804221490398 ]
  - [   0.0000251438759733, -0.0000331557239406,  0.0000443297903985 ]
  - [  -0.0000183623924386,  0.0001000679767458,  0.0000616309698671 ]
  - [  -0.0002264790236950,  0.0000338484533131,  0.0001021912321448 ]
  - [  -0.0000048263464123,  0.0000051734969020,  0.0000289713498205 ]
  - [   0.0004251059144735, -0.0002362029626966, -0.0002612797543406 ]
  - [   0.0008053246419877,  0.0010540388757363,  0.0013159440131858 ]
  - [  -0.0281566642224789,  0.0050814314745367, -0.0029350472614169 ]
  - [  -0.0118235908448696,  0.0054147364571691, -0.0048695486038923 ]
  - [  -0.0122548881918192,  0.0050218696705997, -0.0050398409366608 ]
  - [  -0.0124272061511874,  0.0057586664333940, -0.0048095444217324 ]
  - [  -0.0123549802228808,  0.0054628159850836, -0.0048498846590519 ]
  - [  -0.0124911302700639,  0.0054456279613078, -0.0049640010111034 ]
  - [  -0.0124353216961026,  0.0054060732945800, -0.0047437241300941 ]
  - [  -0.0124901859089732,  0.0053381617181003, -0.0047271260991693 ]
  - [   0.0080209653824568, -0.0037897219881415, -0.0111352838575840 ]
  - [   0.0073022916913033, -0.0003721308894455, -0.0151057615876198 ]
  - [   0.0046585239470005, -0.0036329161375761, -0.0142212752252817 ]
  - [   0.0045943418517709, -0.0018492711242288, -0.0133787244558334 ]
  - [   0.0045262873172760, -0.0020250540692359, -0.0137379886582494 ]
  - [   0.0044623762369156, -0.0019763542804867, -0.0132807353511453 ]
  - [   0.0046732090413570, -0.0017790691927075, -0.0134562309831381 ]
  - [   0.0045179016888142, -0.0019222956616431, -0.0136374384164810 ]
  - [   0.0170161388814449, -0.0022591855376959,  0.0023291441611946 ]
  - [   0.0137972468510270, -0.0063568800687790,  0.0057598878629506 ]
  - [   0.0125414589419961, -0.0052167503163218,  0.0050265337340534 ]
  - [   0.0118711804971099, -0.0070226984098554,  0.0036975555121899 ]
  - [   0.0124612897634506, -0.0054118819534779,  0.0050926459953189 ]
  - [   0.0124876406043768, -0.0054286457598209,  0.0046112043783069 ]
  - [   0.0124662509188056, -0.0054456875659525,  0.0047467187978327 ]
  - [   0.0122415460646152, -0.0054554259404540,  0.0047956840135157 ]
  - [  -0.0053908191621304,  0.0018352465704083,  0.0137849915772676 ]
  - [  -0.0035714921541512,  0.0018178480677307,  0.0134501038119197 ]
  - [  -0.0041630920022726,  0.0017829700373113,  0.0133166471496224 ]
  - [  -0.0036921934224665,  0.0033567312639207,  0.0155504271388054 ]
  - [  -0.0042007546871901,  0.0015471898950636,  0.0111992899328470 ]
  - [  -0.0044151684269309,  0.0020434667821974,  0.0136685483157635 ]
  - [  -0.0044949101284146,  0.0018270127475262,  0.0137067306786776 ]
  - [  -0.0044573359191418,  0.0020957714878023,  0.0133757498115301 ]
- atom:    9
  displacement:
    [  -0.0100000000000000,  0.0000000000000000,  0.0000000000000000 ]
  forces:
  - [  -0.0001215855590999,  0.0002011241303990,  0.0005910074687563 ]
  - [  -0.0000602397194598,  0.0000099047319964, -0.0000782914576121 ]
  - [  -0.0000261579989456,  0.0000333550124196, -0.0000435838010162 ]
  - [   0.0000164781813510, -0.0001029571285471, -0.0000554180005565 ]
  - [   0.0002295323647559, -0.0000361893326044, -0.0001027786638588 ]
  - [   0.0000115188304335, -0.0000042272731662, -0.0000288509763777 ]
  - [  -0.0004293043166399,  0.0002383552491665,  0.0002663354389369 ]
  - [  -0.0007882610661909, -0.0010249017504975, -0.0012821117416024 ]
  - [   0.0032873246818781,  0.0056661590933800, -0.0068155927583575 ]
  - [  -0.0130108119919896,  0.0053880224004388, -0.0048427656292915 ]
  - [  -0.0125824678689241,  0.0057953926734626, -0.0046730535104871 ]
  - [  -0.0124017978087068,  0.0050509609282017, -0.0049094017595053 ]
  - [  -0.0124776940792799,  0.0053449985571206, -0.0048648910596967 ]
  - [  -0.0123408772051334,  0.0053629549220204, -0.0047507621347904 ]
  - [  -0.0123959863558412,  0.0054061054252088, -0.0049666669219732 ]
  - [  -0.0123399458825588,  0.0054743927903473, -0.0049846246838570 ]
  - [   0.0010457265889272, -0.0001791147515178, -0.0158560872077942 ]
  - [   0.0014488580636680, -0.0035851527936757, -0.0119113698601723 ]
  - [   0.0042517674155533, -0.0002250592224300, -0.0128551628440619 ]
  - [   0.0043051308020949, -0.0020301924087107, -0.0137078352272511 ]
  - [   0.0043756300583482, -0.0018553416011855, -0.0133390650153160 ]
  - [   0.0044524511322379, -0.0019081014906988, -0.0137730613350868 ]
  - [   0.0042290273122489, -0.0020973703358322, -0.0136325387284160 ]
  - [   0.0043880613520741, -0.0019495289307088, -0.0134445456787944 ]
  - [   0.0080284681171179, -0.0084100281819701,  0.0072740721516311 ]
  - [   0.0109369270503521, -0.0044002821668983,  0.0039033833891153 ]
  - [   0.0122964829206467, -0.0055882860906422,  0.0046915989369154 ]
  - [   0.0129490289837122, -0.0038034450262785,  0.0060040871612728 ]
  - [   0.0123665807768703, -0.0053975675255060,  0.0045965211465955 ]
  - [   0.0123471301048994, -0.0053827883675694,  0.0050941156223416 ]
  - [   0.0123639591038227, -0.0053645311854780,  0.0049647307023406 ]
  - [   0.0125870946794748, -0.0053550731390715,  0.0049152257852256 ]
  - [  -0.0035162528511137,  0.0020440560765564,  0.0132992295548320 ]
  - [  -0.0053152902983129,  0.0020648641511798,  0.0136264991015196 ]
  - [  -0.0048109339550138,  0.0021287589333951,  0.0138088315725327 ]
  - [  -0.0052428264170885,  0.0004775410052389,  0.0114756803959608 ]
  - [  -0.0047006355598569,  0.0023383502848446,  0.0159182455390692 ]
  - [  -0.0044976510107517,  0.0018313326872885,  0.0134104415774345 ]
  - [  -0.0044127749279141,  0.0020595020614564,  0.0133735816925764 ]
  - [  -0.0044456953182817,  0.0017840457148850,  0.0137048857286572 ]
- atom:    9
  displacement:
    [  -0.0015932183791797, -0.0036597594395589,  0.0091688503118332 ]
  forces:
  - [  -0.0005572845693678,  0.0003878453571815,  0.0021905223838985 ]
  - [   0.0000656352203805, -0.0000089208479039,  0.0000301988329738 ]
  - [   0.0000735467183404, -0.0000460095325252,  0.0000650703441352 ]
  - [  -0.0000852332450449, -0.0000568094110349,  0.0000041672028601 ]
  - [   0.0001011274289340, -0.0025689792819321,  0.0019593483302742 ]
  - [  -0.0000187405385077,  0.0000078063458204,  0.0000231969170272 ]
  - [  -0.0002454067580402,  0.0001576705835760,  0.0000280383974314 ]
  - [   0.0009407786419615,  0.0007557678036392,  0.0007306886836886 ]
  - [  -0.0080217551440001,  0.0105783864855766, -0.0190204326063395 ]
  - [  -0.0125273875892162,  0.0056872102431953, -0.0050228880718350 ]
  - [  -0.0124704018235207,  0.0052376547828317, -0.0048526981845498 ]
  - [  -0.0124989356845617,  0.0050906902179122, -0.0048977457918227 ]
  - [  -0.0124410707503557,  0.0052700480446219, -0.0043807988986373 ]
  - [  -0.0125173069536686,  0.0054398667998612, -0.0049786525778472 ]
  - [  -0.0123110590502620,  0.0053690448403358, -0.0049216942861676 ]
  - [  -0.0122599797323346,  0.0054983403533697, -0.0045030005276203 ]
  - [   0.0053521366789937, -0.0020435014739633, -0.0131595935672522 ]
  - [   0.0024422130081803, -0.0029231808148324, -0.0134209282696247 ]
  - [   0.0044325678609312, -0.0013703177683055, -0.0143415238708258 ]
  - [   0.0044117597863078, -0.0020757671445608, -0.0136083522811532 ]
  - [   0.0043805791065097, -0.0018863482400775, -0.0134857399389148 ]
  - [   0.0046283942647278, -0.0019812276586890, -0.0131376413628459 ]
  - [   0.0044268225319684, -0.0021776407957077, -0.0126963779330254 ]
  - [   0.0044135595671833, -0.0019313441589475, -0.0135909579694271 ]
  - [   0.0083697307854891, -0.0068450607359409,  0.0059260083362460 ]
  - [   0.0133922146633267, -0.0054751858115196,  0.0048614991828799 ]
  - [   0.0124824941158295, -0.0056731924414635,  0.0044962628744543 ]
  - [   0.0120328627526760, -0.0051701716147363,  0.0046187154948711 ]
  - [   0.0126267429441214, -0.0055114980787039,  0.0051001133397222 ]
  - [   0.0121936975046992, -0.0054687010124326,  0.0050255935639143 ]
  - [   0.0123217590153217, -0.0051933834329247,  0.0048949951305985 ]
  - [   0.0124053973704576, -0.0052721770480275,  0.0044557554647326 ]
  - [  -0.0040296521037817, -0.0002899654209614,  0.0158413276076317 ]
  - [  -0.0046121720224619,  0.0017551062628627,  0.0136806527152658 ]
  - [  -0.0045963600277901,  0.0020347987301648,  0.0135652218014002 ]
  - [  -0.0038196747191250,  0.0024976870045066,  0.0140973329544067 ]
  - [  -0.0051691015250981,  0.0025452182162553,  0.0175481177866459 ]
  - [  -0.0043652555905282,  0.0019673411734402,  0.0136386016383767 ]
  - [  -0.0044223065488040,  0.0018707183189690,  0.0136006176471710 ]
  - [  -0.0045248633250594,  0.0018181754276156,  0.0136369653046131 ]
- atom:    9
  displacement:
    [   0.0015932183791797,  0.0036597594395589, -0.0091688503118332 ]
  forces:
  - [   0.0005848692380823, -0.0004107319982722, -0.0022820208687335 ]
  - [  -0.0000650335859973,  0.0000082958285930, -0.0000273579498753 ]
  - [  -0.0000729867606424,  0.0000432396918768, -0.0000633948948234 ]
  - [   0.0000841563160066,  0.0000575424928684, -0.0000019318540581 ]
  - [  -0.0000972729176283,  0.0024734488688409, -0.0018946279305965 ]
  - [   0.0000211265869439, -0.0000071395188570, -0.0000224504619837 ]
  - [   0.0002445103600621, -0.0001581115648150, -0.0000279173254967 ]
  - [  -0.0009291697060689, -0.0007414810243063, -0.0007297411793843 ]
  - [  -0.0168030671775341,  0.0001279581338167,  0.0092538837343454 ]
  - [  -0.0123036429286003,  0.0051203826442361, -0.0046899737790227 ]
  - [  -0.0123653709888458,  0.0055739209055901, -0.0048595080152154 ]
  - [  -0.0123354485258460,  0.0057162754237652, -0.0048191729001701 ]
  - [  -0.0123923197388649,  0.0055372980423272, -0.0053292633965611 ]
  - [  -0.0123158851638436,  0.0053694522939622, -0.0047343429177999 ]
  - [  -0.0125220865011215,  0.0054436204954982, -0.0047913836315274 ]
  - [  -0.0125698987394571,  0.0053144432604313, -0.0052093742415309 ]
  - [   0.0035543409176171, -0.0018343264237046, -0.0139340162277222 ]
  - [   0.0063906852155924, -0.0009873788803816, -0.0136532615870237 ]
  - [   0.0044763553887606, -0.0025155250914395, -0.0127463452517986 ]
  - [   0.0044909808784723, -0.0018032928928733, -0.0134734995663166 ]
  - [   0.0045238556340337, -0.0019921665079892, -0.0135931763797998 ]
  - [   0.0043159699998796, -0.0019088092958555, -0.0138691812753677 ]
  - [   0.0044776825234294, -0.0016879513859749, -0.0143936490640044 ]
  - [   0.0044918390922248, -0.0019420773023739, -0.0134922862052917 ]
  - [   0.0165855884552002, -0.0039312541484833,  0.0037745856679976 ]
  - [   0.0114309834316373, -0.0053325928747654,  0.0048519968986511 ]
  - [   0.0123507641255856, -0.0051373480819166,  0.0052205501124263 ]
  - [   0.0127978138625622, -0.0056199030950665,  0.0051040141843259 ]
  - [   0.0121805146336555, -0.0052900956943631,  0.0045548873022199 ]
  - [   0.0126422047615051, -0.0053425934165716,  0.0046784230507910 ]
  - [   0.0125079769641161, -0.0056172185577452,  0.0048129032365978 ]
  - [   0.0124233886599541, -0.0055308816954494,  0.0052560390904546 ]
  - [  -0.0048980731517076,  0.0042980019934475,  0.0111378580331802 ]
  - [  -0.0042880121618509,  0.0021257782354951,  0.0134006384760141 ]
  - [  -0.0043307384476066,  0.0018553249537945,  0.0135289113968611 ]
  - [  -0.0050929822027683,  0.0013724777381867,  0.0129833761602640 ]
  - [  -0.0037899140734226,  0.0013710288330913,  0.0097115710377693 ]
  - [  -0.0045405337586999,  0.0019111842848361,  0.0134435649961233 ]
  - [  -0.0044839074835181,  0.0020095743238926,  0.0134810134768486 ]
  - [  -0.0043792445212603,  0.0020616557449102,  0.0134436767548323 ]

force_constants:
  format: "full"
  shape: [ 40, 40 ]
  elements:
  - # (1, 1)
    - [     1.241949437350206,     0.006229734163985,    -0.000000000798441 ]
    - [     0.006229734163985,     1.253547657040359,    -0.000000000485115 ]
    - [    -0.000000000798441,    -0.000000000485115,     1.239237423176800 ]
  - # (1, 2)
    - [    -0.016575436734614,     0.000941197275460,     0.000903912205467 ]
    - [     0.000941197699219,    -0.008639722198528,    -0.000597025006810 ]
    - [     0.000903912779832,    -0.000597024838746,    -0.004227526384478 ]
  - # (1, 3)
    - [    -0.013262637066251,     0.004025002593087,     0.001052879573336 ]
    - [     0.004025002367341,    -0.011952522007027,    -0.000254834060541 ]
    - [     0.001052880099983,    -0.000254833895569,    -0.004227526399786 ]
  - # (1, 4)
    - [     0.036262099650402,    -0.063200218156577,    -0.000000000400473 ]
    - [    -0.063200218143211,    -0.081401000614043,     0.000000001453678 ]
    - [     0.000000000354055,     0.000000001127104,     0.063775318768833 ]
  - # (1, 5)
    - [    -0.005158749420062,    -0.001952492261009,    -0.000075121170580 ]
    - [    -0.001952492304681,    -0.008283921379708,     0.002500830797813 ]
    - [    -0.000075120707906,     0.002500831270471,    -0.016000014941574 ]
  - # (1, 6)
    - [     0.007399890196238,    -0.003213927187872,     0.008807378031713 ]
    - [    -0.003213927474158,     0.001416358324898,    -0.003834152786575 ]
    - [     0.008807378852956,    -0.003834153044581,     0.002036530592541 ]
  - # (1, 7)
    - [     0.001714809712340,    -0.000739017536660,    -0.008807379376196 ]
    - [    -0.000739017552913,     0.000338945530599,     0.003834152900981 ]
    - [    -0.008807378932434,     0.003834152826877,     0.008799024375529 ]
  - # (1, 8)
    - [    -0.004885577432444,    -0.001698203061024,    -0.001881672317509 ]
    - [    -0.001698203144869,    -0.008557093423743,    -0.001648972250395 ]
    - [    -0.001881672237501,    -0.001648972464720,    -0.016000014802804 ]
  - # (1, 9)
    - [    -0.011915365817344,     0.020249200420924,     0.068296669703130 ]
    - [     0.020249200012209,     0.025783614303337,    -0.029731880502000 ]
    - [     0.059186306838889,    -0.025765827941263,    -0.243923014898007 ]
  - # (1, 10)
    - [    -0.005891690877189,     0.000221646304241,    -0.008030083623548 ]
    - [     0.001069062075209,     0.001534804164299,     0.001754666782442 ]
    - [    -0.007928990567038,    -0.001396947160070,    -0.005070407436468 ]
  - # (1, 11)
    - [    -0.002556621901800,     0.004173596383030,    -0.006755680106230 ]
    - [     0.003326181808560,    -0.001800265196472,     0.004682081410115 ]
    - [    -0.004379970033366,     0.006755457584398,    -0.005070407786291 ]
  - # (1, 12)
    - [     0.001737352171202,    -0.010165765121597,     0.005511697400257 ]
    - [    -0.010165765565271,    -0.017188774462027,    -0.002399430981637 ]
    - [    -0.005858178100883,     0.002550264720179,    -0.000300128812908 ]
  - # (1, 13)
    - [     0.022809330979454,    -0.008563424971866,    -0.010269098042502 ]
    - [    -0.003510999723099,    -0.179750730776882,     0.202619272557186 ]
    - [    -0.010243971138156,     0.167967268259722,    -0.144885822745226 ]
  - # (1, 14)
    - [     0.000838704500938,    -0.000476831448359,     0.002097576338408 ]
    - [    -0.000476831849226,    -0.000049035039219,    -0.000913147537993 ]
    - [    -0.002912657830874,     0.001267978559575,    -0.002472286413029 ]
  - # (1, 15)
    - [    -0.042722895646501,     0.023730985805135,     0.028766517485640 ]
    - [     0.023730985466561,     0.001458304905532,    -0.012523050085018 ]
    - [     0.026374336188963,    -0.011481651759213,    -0.003063895103467 ]
  - # (1, 16)
    - [    -0.079691190989030,    -0.098926253510012,    -0.155304469620753 ]
    - [    -0.103978680747982,    -0.077250208116522,    -0.130539428769574 ]
    - [    -0.129923753432613,    -0.106947460212375,    -0.144885812267630 ]
  - # (1, 17)
    - [    -0.000697470839492,     0.005435880428466,    -0.026374335043819 ]
    - [     0.005435880902552,     0.009422789914613,     0.011481651588266 ]
    - [    -0.028766519286406,     0.012523049235049,    -0.053053805315494 ]
  - # (1, 18)
    - [    -0.006342568112190,    -0.001325868528920,     0.006894703407208 ]
    - [     0.001523447759512,     0.002096129017857,    -0.000978897500875 ]
    - [     0.008471352643972,    -0.000741033754322,    -0.005180855589893 ]
  - # (1, 19)
    - [    -0.001920042675300,     0.005640269000952,     0.005414255154647 ]
    - [     0.002790953653062,    -0.002326396650089,    -0.004379614473296 ]
    - [     0.006314410117325,    -0.005695715461859,    -0.005180855546176 ]
  - # (1, 20)
    - [    -0.002119282872362,     0.000810882007410,     0.002912656963641 ]
    - [     0.000810881542243,    -0.000609620887669,    -0.001267978898109 ]
    - [    -0.002097576938184,     0.000913147452184,     0.001046286884262 ]
  - # (1, 21)
    - [    -0.267359598629429,    -0.099653139939129,     0.099040233342644 ]
    - [    -0.131415016272099,    -0.029423647569126,     0.036005367862460 ]
    - [     0.109726484270563,     0.025842859880151,    -0.005043965815366 ]
  - # (1, 22)
    - [    -0.199548399707293,     0.101932277347002,    -0.059186306501660 ]
    - [     0.101932280252652,    -0.009775824184198,     0.025765824580315 ]
    - [    -0.068296670199575,     0.029731875611288,    -0.020730533833541 ]
  - # (1, 23)
    - [    -0.003695939769654,    -0.007800466771229,     0.005858177354641 ]
    - [    -0.007800467336856,    -0.018218469913458,    -0.002550264538712 ]
    - [    -0.005511697697725,     0.002399431901065,     0.006162858968374 ]
  - # (1, 24)
    - [    -0.024646237941917,     0.094520974679262,     0.041127487914638 ]
    - [     0.126282850216617,    -0.272137020146380,    -0.097025171775087 ]
    - [     0.055847095459836,    -0.097922697162367,    -0.005043961481670 ]
  - # (1, 25)
    - [    -0.079691190989030,    -0.098926253510013,    -0.155304469620753 ]
    - [    -0.103978680747982,    -0.077250208116522,    -0.130539428769574 ]
    - [    -0.129923753432614,    -0.106947460212375,    -0.144885812267630 ]
  - # (1, 26)
    - [    -0.042722895646502,     0.023730985805135,     0.028766517485640 ]
    - [     0.023730985466561,     0.001458304905532,    -0.012523050085018 ]
    - [     0.026374336188963,    -0.011481651759213,    -0.003063895103467 ]
  - # (1, 27)
    - [     0.000838704500938,    -0.000476831448359,     0.002097576338408 ]
    - [    -0.000476831849226,    -0.000049035039219,    -0.000913147537993 ]
    - [    -0.002912657830874,     0.001267978559575,    -0.002472286413029 ]
  - # (1, 28)