# Thermal properties / unit cell (natom)

unit:
  temperature:   K
  free_energy:   kJ/mol
  entropy:       J/K/mol
  heat_capacity: J/K/mol

natom: 18   
cutoff_frequency: 0.00000
num_modes: 207360
num_integrated_modes: 207358

zero_point_energy:      67.8464073

thermal_properties:
- temperature:         0.0000000
  free_energy:        67.8464073
  entropy:             0.0000000
  heat_capacity:       0.0000000
  energy:             67.8464073

- temperature:        10.0000000
  free_energy:        67.8410176
  entropy:             2.1058022
  heat_capacity:       6.2223616
  energy:             67.8620756

- temperature:        20.0000000
  free_energy:        67.7701805
  entropy:            13.7877769
  heat_capacity:      32.8768623
  energy:             68.0459360

- temperature:        30.0000000
  free_energy:        67.5397935
  entropy:            33.1075437
  heat_capacity:      64.1940831
  energy:             68.5330198

- temperature:        40.0000000
  free_energy:        67.0981515
  entropy:            55.4871157
  heat_capacity:      92.1257166
  energy:             69.3176361

- temperature:        50.0000000
  free_energy:        66.4271238
  entropy:            78.7913662
  heat_capacity:     117.4109350
  energy:             70.3666921

- temperature:        60.0000000
  free_energy:        65.5215075
  entropy:           102.3548260
  heat_capacity:     141.7368372
  energy:             71.6627971

- temperature:        70.0000000
  free_energy:        64.3797271
  entropy:           126.0104031
  heat_capacity:     165.7435590
  energy:             73.2004553

- temperature:        80.0000000
  free_energy:        63.0012312
  entropy:           149.6856358
  heat_capacity:     189.2661160
  energy:             74.9760820

- temperature:        90.0000000
  free_energy:        61.3862359
  entropy:           173.2937106
  heat_capacity:     211.8582753
  energy:             76.9826698

- temperature:       100.0000000
  free_energy:        59.5359355
  entropy:           196.7281763
  heat_capacity:     233.1073759
  energy:             79.2087531

- temperature:       110.0000000
  free_energy:        57.4526153
  entropy:           219.8801791
  heat_capacity:     252.7469380
  energy:             81.6394350

- temperature:       120.0000000
  free_energy:        55.1395988
  entropy:           242.6527455
  heat_capacity:     270.6613153
  energy:             84.2579283

- temperature:       130.0000000
  free_energy:        52.6010877
  entropy:           264.9678156
  heat_capacity:     286.8509106
  energy:             87.0469037

- temperature:       140.0000000
  free_energy:        49.8419618
  entropy:           286.7677495
  heat_capacity:     301.3919419
  energy:             89.9894467

- temperature:       150.0000000
  free_energy:        46.8675810
  entropy:           308.0137387
  heat_capacity:     314.4033377
  energy:             93.0696418

- temperature:       160.0000000
  free_energy:        43.6836112
  entropy:           328.6828978
  heat_capacity:     326.0232521
  energy:             96.2728748

- temperature:       170.0000000
  free_energy:        40.2958807
  entropy:           348.7650737
  heat_capacity:     336.3939153
  energy:             99.5859432

- temperature:       180.0000000
  free_energy:        36.7102684
  entropy:           368.2598857
  heat_capacity:     345.6526485
  energy:            102.9970478

- temperature:       190.0000000
  free_energy:        32.9326186
  entropy:           387.1741995
  heat_capacity:     353.9270554
  energy:            106.4957165

- temperature:       200.0000000
  free_energy:        28.9686796
  entropy:           405.5200772
  heat_capacity:     361.3328785
  energy:            110.0726950

- temperature:       210.0000000
  free_energy:        24.8240599
  entropy:           423.3131652
  heat_capacity:     367.9734686
  energy:            113.7198246

- temperature:       220.0000000
  free_energy:        20.5041991
  entropy:           440.5714557
  heat_capacity:     373.9401697
  energy:            117.4299193

- temperature:       230.0000000
  free_energy:        16.0143488
  entropy:           457.3143535
  heat_capacity:     379.3131833
  energy:            121.1966502

- temperature:       240.0000000
  free_energy:        11.3595629
  entropy:           473.5619828
  heat_capacity:     384.1626402
  energy:            125.0144388

- temperature:       250.0000000
  free_energy:         6.5446923
  entropy:           489.3346813
  heat_capacity:     388.5497240
  energy:            128.8783626

- temperature:       260.0000000
  free_energy:         1.5743851
  entropy:           504.6526365
  heat_capacity:     392.5277581
  energy:            132.7840705

- temperature:       270.0000000
  free_energy:        -3.5469107
  entropy:           519.5356313
  heat_capacity:     396.1432104
  energy:            136.7277098

- temperature:       280.0000000
  free_energy:        -8.8149418
  entropy:           534.0028699
  heat_capacity:     399.4365980
  energy:            140.7058618

- temperature:       290.0000000
  free_energy:       -14.2256440
  entropy:           548.0728641
  heat_capacity:     402.4432871
  energy:            144.7154866

- temperature:       300.0000000
  free_energy:       -19.7751342
  entropy:           561.7633650
  heat_capacity:     405.1941917
  energy:            148.7538753

- temperature:       310.0000000
  free_energy:       -25.4597029
  entropy:           575.0913268
  heat_capacity:     407.7163796
  energy:            152.8186084

- temperature:       320.0000000
  free_energy:       -31.2758062
  entropy:           588.0728942
  heat_capacity:     410.0335952
  energy:            156.9075200

- temperature:       330.0000000
  free_energy:       -37.2200574
  entropy:           600.7234069
  heat_capacity:     412.1667091
  energy:            161.0186669

- temperature:       340.0000000
  free_energy:       -43.2892194
  entropy:           613.0574159
  heat_capacity:     414.1341037
  energy:            165.1503020

- temperature:       350.0000000
  free_energy:       -49.4801967
  entropy:           625.0887074
  heat_capacity:     415.9520047
  energy:            169.3008509

- temperature:       360.0000000
  free_energy:       -55.7900281
  entropy:           636.8303330
  heat_capacity:     417.6347646
  energy:            173.4688918

- temperature:       370.0000000
  free_energy:       -62.2158791
  entropy:           648.2946414
  heat_capacity:     419.1951066
  energy:            177.6531383

- temperature:       380.0000000
  free_energy:       -68.7550355
  entropy:           659.4933137
  heat_capacity:     420.6443334
  energy:            181.8524237

- temperature:       390.0000000
  free_energy:       -75.4048968
  entropy:           670.4373974
  heat_capacity:     421.9925076
  energy:            186.0656882

- temperature:       400.0000000
  free_energy:       -82.1629697
  entropy:           681.1373419
  heat_capacity:     423.2486062
  energy:            190.2919670

- temperature:       410.0000000
  free_energy:       -89.0268628
  entropy:           691.6030319
  heat_capacity:     424.4206542
  energy:            194.5303803

- temperature:       420.0000000
  free_energy:       -95.9942807
  entropy:           701.8438208
  heat_capacity:     425.5158405
  energy:            198.7801240

- temperature:       430.0000000
  free_energy:      -103.0630191
  entropy:           711.8685618
  heat_capacity:     426.5406173
  energy:            203.0404625

- temperature:       440.0000000
  free_energy:      -110.2309598
  entropy:           721.6856383
  heat_capacity:     427.5007869
  energy:            207.3107211

- temperature:       450.0000000
  free_energy:      -117.4960662
  entropy:           731.3029922
  heat_capacity:     428.4015774
  energy:            211.5902803

- temperature:       460.0000000
  free_energy:      -124.8563790
  entropy:           740.7281511
  heat_capacity:     429.2477076
  energy:            215.8785704

- temperature:       470.0000000
  free_energy:      -132.3100124
  entropy:           749.9682531
  heat_capacity:     430.0434446
  energy:            220.1750665

- temperature:       480.0000000
  free_energy:      -139.8551499
  entropy:           759.0300711
  heat_capacity:     430.7926538
  energy:            224.4792843

- temperature:       490.0000000
  free_energy:      -147.4900410
  entropy:           767.9200352
  heat_capacity:     431.4988426
  energy:            228.7907762

- temperature:       500.0000000
  free_energy:      -155.2129981
  entropy:           776.6442530
  heat_capacity:     432.1651987
  energy:            233.1091284

- temperature:       510.0000000
  free_energy:      -163.0223930
  entropy:           785.2085296
  heat_capacity:     432.7946241
  energy:            237.4339571

- temperature:       520.0000000
  free_energy:      -170.9166540
  entropy:           793.6183858
  heat_capacity:     433.3897648
  energy:            241.7649066

- temperature:       530.0000000
  free_energy:      -178.8942635
  entropy:           801.8790750
  heat_capacity:     433.9530368
  energy:            246.1016462

- temperature:       540.0000000
  free_energy:      -186.9537550
  entropy:           809.9955991
  heat_capacity:     434.4866497
  energy:            250.4438685

- temperature:       550.0000000
  free_energy:      -195.0937108
  entropy:           817.9727236
  heat_capacity:     434.9926272
  energy:            254.7912871

- temperature:       560.0000000
  free_energy:      -203.3127599
  entropy:           825.8149912
  heat_capacity:     435.4728250
  energy:            259.1436351

- temperature:       570.0000000
  free_energy:      -211.6095756
  entropy:           833.5267351
  heat_capacity:     435.9289474
  energy:            263.5006634

- temperature:       580.0000000
  free_energy:      -219.9828734
  entropy:           841.1120904
  heat_capacity:     436.3625617
  energy:            267.8621391

- temperature:       590.0000000
  free_energy:      -228.4314093
  entropy:           848.5750063
  heat_capacity:     436.7751109
  energy:            272.2278444

- temperature:       600.0000000
  free_energy:      -236.9539780
  entropy:           855.9192558
  heat_capacity:     437.1679251
  energy:            276.5975755

- temperature:       610.0000000
  free_energy:      -245.5494109
  entropy:           863.1484461
  heat_capacity:     437.5422324
  energy:            280.9711412

- temperature:       620.0000000
  free_energy:      -254.2165749
  entropy:           870.2660277
  heat_capacity:     437.8991674
  energy:            285.3483623

- temperature:       630.0000000
  free_energy:      -262.9543704
  entropy:           877.2753026
  heat_capacity:     438.2397799
  energy:            289.7290702

- temperature:       640.0000000
  free_energy:      -271.7617305
  entropy:           884.1794331
  heat_capacity:     438.5650424
  energy:            294.1131067

- temperature:       650.0000000
  free_energy:      -280.6376187
  entropy:           890.9814487
  heat_capacity:     438.8758563
  energy:            298.5003229

- temperature:       660.0000000
  free_energy:      -289.5810287
  entropy:           897.6842534
  heat_capacity:     439.1730586
  energy:            302.8905785

- temperature:       670.0000000
  free_energy:      -298.5909824
  entropy:           904.2906324
  heat_capacity:     439.4574268
  energy:            307.2837413

- temperature:       680.0000000
  free_energy:      -307.6665289
  entropy:           910.8032581
  heat_capacity:     439.7296842
  energy:            311.6796866

- temperature:       690.0000000
  free_energy:      -316.8067436
  entropy:           917.2246963
  heat_capacity:     439.9905043
  energy:            316.0782969

- temperature:       700.0000000
  free_energy:      -326.0107271
  entropy:           923.5574111
  heat_capacity:     440.2405145
  energy:            320.4794607

- temperature:       710.0000000
  free_energy:      -335.2776040
  entropy:           929.8037705
  heat_capacity:     440.4803003
  energy:            324.8830731

- temperature:       720.0000000
  free_energy:      -344.6065222
  entropy:           935.9660510
  heat_capacity:     440.7104081
  energy:            329.2890345

- temperature:       730.0000000
  free_energy:      -353.9966521
  entropy:           942.0464421
  heat_capacity:     440.9313487
  energy:            333.6972507

- temperature:       740.0000000
  free_energy:      -363.4471851
  entropy:           948.0470508
  heat_capacity:     441.1435999
  energy:            338.1076325

- temperature:       750.0000000
  free_energy:      -372.9573339
  entropy:           953.9699055
  heat_capacity:     441.3476086
  energy:            342.5200952

- temperature:       760.0000000
  free_energy:      -382.5263306
  entropy:           959.8169594
  heat_capacity:     441.5437940
  energy:            346.9345586

- temperature:       770.0000000
  free_energy:      -392.1534267
  entropy:           965.5900948
  heat_capacity:     441.7325487
  energy:            351.3509463

- temperature:       780.0000000
  free_energy:      -401.8378922
  entropy:           971.2911258
  heat_capacity:     441.9142413
  energy:            355.7691860

- temperature:       790.0000000
  free_energy:      -411.5790147
  entropy:           976.9218019
  heat_capacity:     442.0892181
  energy:            360.1892088

- temperature:       800.0000000
  free_energy:      -421.3760993
  entropy:           982.4838105
  heat_capacity:     442.2578042
  energy:            364.6109491

- temperature:       810.0000000
  free_energy:      -431.2284675
  entropy:           987.9787803
  heat_capacity:     442.4203056
  energy:            369.0343446

- temperature:       820.0000000
  free_energy:      -441.1354567
  entropy:           993.4082836
  heat_capacity:     442.5770102
  energy:            373.4593359

- temperature:       830.0000000
  free_energy:      -451.0964200
  entropy:           998.7738389
  heat_capacity:     442.7281893
  energy:            377.8858663

- temperature:       840.0000000
  free_energy:      -461.1107252
  entropy:          1004.0769134
  heat_capacity:     442.8740984
  energy:            382.3138821

- temperature:       850.0000000
  free_energy:      -471.1777547
  entropy:          1009.3189250
  heat_capacity:     443.0149784
  energy:            386.7433316

- temperature:       860.0000000
  free_energy:      -481.2969047
  entropy:          1014.5012446
  heat_capacity:     443.1510570
  energy:            391.1741656

- temperature:       870.0000000
  free_energy:      -491.4675851
  entropy:          1019.6251982
  heat_capacity:     443.2825490
  energy:            395.6063374

- temperature:       880.0000000
  free_energy:      -501.6892184
  entropy:          1024.6920687
  heat_capacity:     443.4096572
  energy:            400.0398020

- temperature:       890.0000000
  free_energy:      -511.9612403
  entropy:          1029.7030976
  heat_capacity:     443.5325737
  energy:            404.4745166

- temperature:       900.0000000
  free_energy:      -522.2830983
  entropy:          1034.6594871
  heat_capacity:     443.6514800
  energy:            408.9104401

- temperature:       910.0000000
  free_energy:      -532.6542518
  entropy:          1039.5624013
  heat_capacity:     443.7665480
  energy:            413.3475334

- temperature:       920.0000000
  free_energy:      -543.0741718
  entropy:          1044.4129681
  heat_capacity:     443.8779406
  energy:            417.7857588

- temperature:       930.0000000
  free_energy:      -553.5423403
  entropy:          1049.2122804
  heat_capacity:     443.9858119
  energy:            422.2250805

- temperature:       940.0000000
  free_energy:      -564.0582501
  entropy:          1053.9613978
  heat_capacity:     444.0903084
  energy:            426.6654638

- temperature:       950.0000000
  free_energy:      -574.6214044
  entropy:          1058.6613476
  heat_capacity:     444.1915689
  energy:            431.1068758

- temperature:       960.0000000
  free_energy:      -585.2313165
  entropy:          1063.3131264
  heat_capacity:     444.2897252
  energy:            435.5492848

- temperature:       970.0000000
  free_energy:      -595.8875096
  entropy:          1067.9177010
  heat_capacity:     444.3849023
  energy:            439.9926604

- temperature:       980.0000000
  free_energy:      -606.5895163
  entropy:          1072.4760098
  heat_capacity:     444.4772194
  energy:            444.4369734

- temperature:       990.0000000
  free_energy:      -617.3368786
  entropy:          1076.9889639
  heat_capacity:     444.5667894
  energy:            448.8821956

- temperature:      1000.0000000
  free_energy:      -628.1291473
  entropy:          1081.4574477
  heat_capacity:     444.6537199
  energy:            453.3283004
