8
Lattice="4.939777778348856 -0.002949240682059457 0.00105019420876635 0.0022477376996293493 5.158014226539867 -3.17099824501144 -0.0016324075518580952 -0.05775635491429495 6.061097298936774" Properties=species:S:1:pos:R:3:forces:R:3 structure_index=0 total_energy=-23.773244857788086 stress="-0.036803729832172394 -0.0010084444656968117 -0.000520931207574904 -0.0010084417881444097 -0.03408709913492203 0.0019582274835556746 -0.0005208519869484007 0.0019581730011850595 -0.02768034301698208" pbc="T T T"
Li       2.30469669       1.73026701       1.81588810      -0.00032181       0.00346237      -0.01623643
Li       2.30792003       4.27305485       0.21222572      -0.00093139       0.00339313       0.01813934
Li       4.77170049       0.84197746       0.31435477       0.00113697       0.01920914      -0.00407277
Li       4.77336009       0.85283089       3.37499625       0.00066737      -0.01175828       0.00965984
Ga       2.30464332       4.30903320       3.29093644      -0.00039371      -0.00720133      -0.04599643
Ga       4.77508746       3.50746080      -1.23564558       0.00071502      -0.04614225       0.01607358
Sn       2.30348132       1.66864482       4.82093155      -0.00085828       0.01848409       0.00564487
Sn       4.77580093       3.38622079       1.76538110      -0.00001417       0.02055313       0.01678800
16
Lattice="4.216326144518079 -0.012327565898788409 -0.015676823237884177 -2.0935226883411726 4.712429555339968 -0.0442790817757319 0.062341360259787384 1.731311638361809 15.648166609107374" Properties=species:S:1:pos:R:3:forces:R:3 structure_index=1 total_energy=-48.220096588134766 stress="0.015298702754080296 0.0004619784594979137 -0.0005619569565169513 0.0004619294486474246 0.01537689846009016 -0.0005648035439662635 -0.0005620275624096394 -0.0005649052909575403 0.017617294564843178" pbc="T T T"
Li       2.86859516       2.72259636       2.70869877      -0.00082659      -0.02993828      -0.02854328
Li      -1.32631602       4.37397161       8.23261259      -0.00028015       0.01275768       0.00052797
Li       2.87246431       0.88208967       6.40132202       0.00008557      -0.01005685      -0.00962120
Li      -1.31232024       5.47522438      11.15567982       0.00061906      -0.01900008       0.02059644
Li       0.79909159       1.69119480      14.29278583      -0.00014169       0.01153003       0.00191196
Li       0.75106543       0.70256638       1.68085647      -0.00056682       0.01472841      -0.00164328
Li       2.87752027       3.62413647       5.40185565       0.00046725      -0.00489864      -0.01497287
Ga       2.89990914       2.53192149      12.12777516       0.00022663       0.03499337      -0.00670018
Ga       0.75679807       3.82697927       0.82227219       0.00096237      -0.00430429      -0.00542901
Ga       0.78590138       3.56619078      10.17837463       0.00037229      -0.02550260       0.03609134
Ga       0.77256360       2.63534974       7.25531750       0.00007317       0.00498416       0.00162003
Ga       0.76784783       4.48552647       3.47974360      -0.00044718      -0.01001655      -0.00547516
Sn       2.91874683       3.68873288      15.49989772      -0.00091761      -0.02462994       0.02591726
Sn       0.76115630       1.64997963       4.48549335       0.00041993       0.01873525      -0.00083680
Sn       2.88450707       1.63757029       9.20578431       0.00019766      -0.00942218       0.01357506
Sn       0.80230460       4.43391641      13.16085187      -0.00024390       0.04004053      -0.02701827
12
Lattice="4.269093662972495 0.0019105316678956344 -0.001125430390102594 -0.0027017933704610534 6.305055850083563 -0.0005827154047476961 0.002180875979755428 0.0011545125940874536 9.158300444003379" Properties=species:S:1:pos:R:3:forces:R:3 structure_index=2 total_energy=-37.977622985839844 stress="-0.005731839220970869 0.00015008663467597216 1.6130459698615596e-05 0.00015011931827757508 0.016796624287962914 4.383584746392444e-05 1.6112489902297966e-05 4.385279680718668e-05 -0.007314674556255341" pbc="T T T"
Li       1.81515458       4.15323393       0.51972206       0.00006436      -0.01106154       0.01207305
Li       1.81833332       1.00126358       6.73978837      -0.00009837      -0.01064932      -0.01180152
Li       3.95076711       2.45010522       2.16075163       0.00002501       0.01170477      -0.01206794
Li       3.95039580       5.60407826       5.09751837      -0.00010318       0.01120972       0.01187236
Ga       1.81675168       0.90916140       0.64681463      -0.00015253       0.00352494      -0.00566814
Ga       1.81685297       4.06317272       6.61334865       0.00001213       0.00238606       0.00397880
Ga       3.95183017       2.54222668       5.22488935      -0.00028467      -0.00336440      -0.00409026
Ga       3.94923537       5.69414334       2.03343934       0.00024888      -0.00355408       0.00350799
Sn       1.81585769       4.11424073       3.54787984       0.00011574      -0.00719181       0.00283830
Sn       1.81731511       0.96092764       3.71042898       0.00010905      -0.00447903      -0.00002217
Sn       3.95102736       5.64310885       8.12550973       0.00007225       0.00768438       0.00356069
Sn       3.95245281       2.49180529       8.29155799      -0.00000866       0.00379031      -0.00418116
5
Lattice="4.050626137062951 -0.00048613976086820147 -1.4479854891191404 -0.51848271604649 4.020553078330713 -1.4492723428270193 0.02858502109867894 0.02568752432610462 6.4886679241282454" Properties=species:S:1:pos:R:3:forces:R:3 structure_index=3 total_energy=-15.908000946044922 stress="-0.03139151632785797 -0.008900641463696957 -0.015700004994869232 -0.008900548331439495 -0.03549500182271004 -0.019672159105539322 -0.015700213611125946 -0.019672362133860588 -0.06448692828416824" pbc="T T T"
Ga       2.11137468       3.13177658      -0.99040182      -0.00093914       0.00237108       0.00159654
Ga       0.34880688       1.12027284       0.46040461       0.00008953      -0.00003194       0.00172493
Ga       1.89646316       0.57429415       4.80901355      -0.01234898      -0.01670048      -0.03586528
Ga       0.59097968       3.70424318       1.15090743       0.01379086       0.01426094       0.03365057
Sn       3.26952190       2.13863560       2.25872984      -0.00059229       0.00010038      -0.00110676
4
Lattice="4.5536175209302625 -0.0006812854444543334 0.0018759326531693965 0.0003131828120603936 4.553611986889126 0.0009763512355160066 -0.003040642078235542 -0.0015643628957551462 4.331900713420847" Properties=species:S:1:pos:R:3:forces:R:3 structure_index=4 total_energy=-13.482036590576172 stress="-0.023892581462860107 -0.0010192198678851128 -0.0029967380687594414 -0.0010191384935751557 -0.02392566204071045 -0.0015311643946915865 -0.002996794879436493 -0.0015311634633690119 -0.015828603878617287" pbc="T T T"
Li       2.23922430       0.54260107       3.25008878       0.00029029       0.00030222       0.00014782
Ga       4.51678228       2.81951184       3.25062096      -0.00061090       0.00085122       0.00136433
Sn       4.51800479       0.54477222       1.08607771      -0.00061198      -0.00188943      -0.00197885
Sn       2.24084184       2.82082567       1.08369337       0.00093259       0.00073599       0.00046670
8
Lattice="4.773878373831445 -0.0026687492418160205 0.0035166539204434816 0.005289984156253364 5.073969473548779 -2.898402148907885 -0.003115765092517437 -0.01607434330733793 5.845320833277899" Properties=species:S:1:pos:R:3:forces:R:3 structure_index=5 total_energy=-20.604320526123047 stress="0.040438491851091385 0.0015944824554026127 0.0017450297018513083 0.0015945141203701496 -0.03438844904303551 0.00015135272406041622 0.0017451243475079536 0.0001514234609203413 -0.03457116708159447" pbc="T T T"
Li       1.30710154       4.35630170       0.34569000      -0.00044622      -0.01534669       0.02832862
Li       1.30461097       1.92009402       1.74252872      -0.00061292       0.02779420      -0.00310931
Li       3.69422087       3.47546585      -1.16819596      -0.00054952      -0.03566203      -0.00041317
Li       3.69138971       1.04140324       0.22423287      -0.00000289       0.01920210      -0.03182769
Li       1.30463071       4.34367223       3.15285147       0.00082235      -0.00933779      -0.02458617
Li       3.68942509       1.03375345       3.26665828       0.00116331       0.01920036       0.02915431
Ga       3.69199781       3.53767733       1.75424931       0.00006590      -0.00247625       0.00205061
Sn       1.30298738       1.84432698       4.66381460      -0.00043999      -0.00337389       0.00040280
10
Lattice="3.9633581952700667 -0.005098195541130556 0.003652126691534463 0.009713756302576499 6.216409208631085 0.0031676497824746613 -0.0094054453225762 -0.004979941085359002 9.189319815467357" Properties=species:S:1:pos:R:3:forces:R:3 structure_index=6 total_energy=-32.66963195800781 stress="-0.015587055124342442 0.001357897650450468 0.0003654540632851422 0.00135793664958328 -0.016587138175964355 0.0004544856201391667 0.00036542341695167124 0.0004545699921436608 -0.005413935985416174" pbc="T T T"
Li       0.17859588       0.35055925       0.79329294      -0.00021779       0.00218085       0.00968481
Li       0.17504687       3.45868144       7.40444674       0.00029650       0.00058862      -0.01068004
Ga       2.15960956       1.67005563       2.53184220       0.00008750       0.00616476       0.00923635
Ga       2.15384040       1.92717433       8.76610697      -0.00008200       0.00663736       0.01224703
Ga       2.15885216       5.03296595       8.62735356      -0.00024011       0.00854253      -0.01326301
Ga       2.16048607       4.78056615       5.66764924       0.00039458       0.00512184      -0.00742701
Sn       0.17666488       2.55808374       4.57382616      -0.00003419      -0.02600771       0.01075680
Sn       0.18261109       3.54914373       1.22649840      -0.00029671       0.01151942      -0.00177615
Sn       0.17104789       0.43858408       6.97393812       0.00006301       0.01180414       0.00019047
Sn       0.18261253       5.66784869       3.62158827       0.00002921      -0.02655181      -0.00896926
7
Lattice="4.406042351797162 0.004273075118011945 1.33045034241972 1.9943616364057126 3.929150341019185 1.329671421748048 -0.08000779660645345 -0.04699390239774975 8.193858815675055" Properties=species:S:1:pos:R:3:forces:R:3 structure_index=7 total_energy=-21.579208374023438 stress="-0.03388876095414162 -0.0013721592258661985 -0.0009357133531011641 -0.0013721277937293053 -0.03214351460337639 -0.0008850551676005125 -0.0009355456568300724 -0.0008848035940900445 -0.041287750005722046" pbc="T T T"
Li       3.87284731       2.86851218       6.02432908      -0.00910519      -0.00505228       0.02416198
Li       1.36935434       1.33062056       6.35118538      -0.00128436      -0.00087922       0.00509890
Li       0.55428771       0.82863205       1.10718885       0.01270096       0.00773436      -0.04407304
Ga       5.44202990       3.83383144       8.76372605      -0.00213374      -0.00171810       0.00717277
Ga       4.18671002       0.35817261       4.99971528      -0.00524980      -0.00323491       0.02127865
Sn       2.20615090       1.84443010       3.59037724       0.00247545       0.00109596      -0.00807292
Sn       3.02258940       2.34701319       8.82038706       0.00259669       0.00205422      -0.00556633
10
Lattice="3.1053367270382104 0.00031494083933504704 -0.000355637752334451 -0.0017600444125278616 7.718667523776252 -0.0026779565557081835 0.0004223665047202816 0.0020021229476241856 7.719229994751257" Properties=species:S:1:pos:R:3:forces:R:3 structure_index=8 total_energy=-29.994239807128906 stress="0.01807379350066185 -0.0017652856186032295 -0.0008871791651472449 -0.0017651349771767855 -0.0216577909886837 -0.0012629111297428608 -0.0008870463352650404 -0.0012629498960450292 -0.021402643993496895" pbc="T T T"
Li       2.55947557       3.59932797       1.26568892       0.00098427      -0.02233074       0.02278914
Li       2.56192947       2.50276127       5.12570553      -0.00145114       0.02228644       0.02207907
Li       2.55885133       7.45937669       2.36097182       0.00069635      -0.02328843      -0.02190888
Li       2.56007738       6.36239209       6.22198647      -0.00016747       0.02247237      -0.02316212
Ga       1.00816707       4.05864347       6.68170577      -0.00029064       0.03110421       0.02916554
Ga       1.00880278       0.19887981       4.66821769      -0.00018804       0.02934356      -0.03120354
Ga       1.00703288       5.90299687       0.80566200      -0.00064612      -0.03045161      -0.02861868
Ga       1.00805460       2.04293963       2.82221252      -0.00032479      -0.02961922       0.03029589
Sn       1.00818182       1.12367103       7.60412673       0.00048889      -0.00215874       0.00084183
Sn       1.00674046       4.97930331       3.74375090       0.00089871       0.00264215      -0.00027824
4
Lattice="4.217882343184128 -0.0070433954404949895 0.02114296126594004 0.014172641738338177 4.218108085027506 0.01684427669811963 -0.0056030547547622055 -0.004434671666397025 4.2443028641217095" Properties=species:S:1:pos:R:3:forces:R:3 structure_index=9 total_energy=-11.990621566772461 stress="0.06957033276557922 0.008760395459830761 0.012231394648551941 0.008760322816669941 0.07014086097478867 0.00968718621879816 0.012231437489390373 0.00968720018863678 0.08265426754951477" pbc="T T T"
Li       1.53103983       2.93261748       0.38013779      -0.00037557      -0.00020136       0.00072832
Li       3.63283012       0.81993901       0.38242374      -0.00017496      -0.00020163       0.00058241
Ga       1.52119264       0.82105760       2.49449584      -0.00062283      -0.00003545      -0.00039993
Sn       3.63638227       2.92639380       2.51359077       0.00117337       0.00043844      -0.00091080
20
Lattice="6.558737280268221 -0.008946847791686243 -1.2666688937745476 -0.17919346219777593 6.594435254586321 -1.3304018429672184 0.17290656229668047 0.11421915296714918 8.58132283921581" Properties=species:S:1:pos:R:3:forces:R:3 structure_index=10 total_energy=-57.862281799316406 stress="-0.004593896213918924 0.002686521038413048 -0.0005067340680398047 0.0026865829713642597 0.015570799820125103 -0.00556704867631197 -0.0005069097969681025 -0.0055671376176178455 0.002779613481834531" pbc="T T T"
Li       6.41796451       3.18616324       2.70200897       0.00819290      -0.00068122      -0.02533643
Li       2.95300186       6.60291414       2.73325390       0.01072519       0.01939119      -0.02795350
Li       5.24534074       5.47525660       4.11060939      -0.00292100       0.01738332      -0.02991346
Li       2.07544995       2.20655743       5.74944670       0.00388575       0.00616078       0.03379520
Li       1.13161696       4.69470494       1.81942511       0.01551880       0.01767984       0.01094025
Li       0.78927897       0.76160404       7.84957781      -0.00136764      -0.01250051       0.00522574
Li       1.37885930       1.32084941       2.29295001      -0.00847296      -0.02655666       0.02324073
Li       4.46225331       1.17437405       1.87894405       0.00109905       0.00342255       0.01721855
Li       3.33300665       3.46631471       3.27922021       0.01215960      -0.00767154      -0.01582033
Li       5.69373741       5.94944734      -0.99062798      -0.01486790      -0.00871257      -0.01203055
Ga       0.19297458       0.23277830       4.43699941      -0.03910768      -0.01746013       0.00862479
Ga       0.43194494       4.14924296       7.22820668       0.01124968       0.01164356       0.00084655
Ga       4.09290010       4.27147260       6.35880539      -0.00262835      -0.02114589       0.00023520
Ga       3.97798774       0.50280648       7.31791002      -0.02549608       0.01737561       0.00901469
Ga       4.60952308       4.92520603       1.32400178      -0.00745165      -0.01327487       0.01347809
Ga       2.51381837       5.81337193      -0.23539392       0.02369409      -0.00350499       0.01653799
Sn       5.14502387       1.91182882       4.85174191       0.02421933       0.00270661       0.01427404
Sn       2.58963265       2.79477282       0.10814763      -0.01791694      -0.00129290      -0.01904269
Sn       1.71968702       5.22612181       4.80068730       0.00258182       0.01055846      -0.00623412
Sn       5.75152002       2.68259724      -0.14606607       0.00690394       0.00647934      -0.01710077
4
Lattice="4.04076051712036 0.0 2.3323340415954594 1.3465973138410166 3.81010841674235 2.3326613903045654 0.0 0.0 4.666240692138672" Properties=species:S:1:pos:R:3:forces:R:3 structure_index=11 total_energy=-12.011082649230957 stress="0.0464412160217762 -9.887458145385608e-05 -0.0027490274515002966 -9.896792471408844e-05 0.050254449248313904 -0.0016528076957911253 -0.0027492439839988947 -0.0016526674153283238 0.04750869423151016" pbc="T T T"
Li       4.65748647       2.67691723       6.79977605       0.00003300       0.00046105       0.00038284
Li       1.96393071       0.77136817       2.13392547      -0.00013741       0.00114965       0.00084898
Ga       3.31093302       1.72442590       4.46697259      -0.00024407      -0.00018284      -0.00004419
Sn       1.96344636       3.63001436       6.80080468       0.00034847      -0.00142786      -0.00118764
18
Lattice="4.2962203499573235 -0.003914913617163233 -0.0008972770698867092 -2.1399350026177677 6.577877079285112 -0.027158293282461693 0.002513786090315673 0.006343108949167991 13.201049464268404" Properties=species:S:1:pos:R:3:forces:R:3 structure_index=12 total_energy=-56.770992279052734 stress="0.00022003144840709865 -0.0007049075793474913 0.00017416835180483758 -0.0007049712585285306 -0.011396244168281555 0.0008174445247277617 0.00017416074115317315 0.0008175437105819583 -0.0017911802278831601" pbc="T T T"
Li       3.49340614       2.22945125       4.64232939      -0.00019319      -0.00950528       0.01489331
Li       1.34178689       0.04997241       9.15937412       0.00122874      -0.01736294       0.00352314
Li       1.34536085       2.22524509       2.47936588       0.00039373      -0.02722540       0.00396548
Li      -0.79726470       6.44767252       0.34110596      -0.00006325      -0.00609432       0.02945093
Li      -0.79839890       4.30708129      11.26030077      -0.00043647       0.02554664       0.00896070
Li      -0.79973356       4.27662862       7.00121289      -0.00073449       0.01637771      -0.02000910
Li      -0.79737598       6.43170696       4.58904342      -0.00010446      -0.01393183      -0.02192658
Li       3.49462024       2.24670042       0.34284013      -0.00069273       0.01001488      -0.00581056
Ga       3.49776890       2.14927985       9.16993565      -0.00503926       0.01434282       0.01429948
Ga       1.34652558       2.18022129      11.39412385       0.00124377      -0.02261472      -0.03654342
Ga      -0.79755141       4.36765381       2.45844104      -0.00223786       0.01700129      -0.01502888
Sn       1.35079072       6.45498192       6.85298798      -0.00062142      -0.00346626       0.01638438
Sn       3.49268878       0.08847041      11.38717960      -0.00083478      -0.02512987      -0.00542188
Sn       1.34814821       4.28195477       0.28062875       0.00066052       0.00453110       0.01217133
Sn       1.34733234       4.35711112       9.17815166       0.00360213       0.01476861       0.00079356
Sn       1.34437111       2.10451989       6.85255869       0.00245713       0.00146900       0.02017495
Sn       1.34777913       4.30918194       4.62759914       0.00119262       0.00615762      -0.00958587
Sn       3.49132997       0.11407433       2.49757242       0.00017926       0.01512097      -0.01029098
8
Lattice="5.2642856039767 0.005245151455375874 -2.996421665059043 -1.7168757897645663 4.978474335967824 -2.9930117792833464 -0.006220239043084987 -0.012066585087270702 6.10421628826508" Properties=species:S:1:pos:R:3:forces:R:3 structure_index=13 total_energy=-25.06570053100586 stress="-0.038164813071489334 0.003573060967028141 0.01131565310060978 0.0035730088129639626 -0.033896274864673615 0.017170600593090057 0.011315729469060898 0.017170604318380356 -0.033648502081632614" pbc="T T T"
Li       2.75563594       2.90218439      -3.86237047      -0.00243080       0.00279433       0.00153976
Li       0.96991758       0.41703621      -0.86481794       0.00558541      -0.00329264      -0.00218832
Ga       0.11864308       2.89687375       0.68743040      -0.00345365       0.00318685       0.00031925
Ga       3.60690146       0.40997398       0.69177324      -0.00180493      -0.00228178      -0.00425499
Ga       2.74554640       2.89920841      -0.80755789       0.00147372       0.00161647      -0.00143039
Ga       0.97427975       0.40742779       2.18224987       0.00251396      -0.00172630       0.00518082
Sn       0.11879078       2.90210619      -2.36727469       0.00216067       0.00312524       0.00180944
Sn       3.60881049       0.41797209      -2.36001687      -0.00404438      -0.00342216      -0.00097557
6
Lattice="4.521702721938202 -0.000597923099234493 -0.0005341408419052441 -2.259464235923384 3.9168239563224017 0.0003018418707340951 0.00016090119590271974 0.00018447684144119064 7.386032788218111" Properties=species:S:1:pos:R:3:forces:R:3 structure_index=14 total_energy=-19.262481689453125 stress="0.012993219308555126 0.00021006290626246482 -0.00014458870282396674 0.00021001006825827062 0.01349770836532116 0.00012109310046071187 -0.0001446308015147224 0.00012093938858015463 0.027603929862380028" pbc="T T T"
Li      -0.46758991       3.10421032       4.16974339      -0.00043976       0.00021590      -0.04660076
Li      -0.46904327       3.10471225       0.47797409      -0.00018079      -0.00006976      -0.04794385
Ga       1.79155762       1.79875989       6.73500820       0.00034172      -0.00009269       0.02733257
Ga       4.05231767       0.49306566       3.04202538      -0.00008047       0.00002290       0.02598169
Sn       4.05222090       0.49265443       5.86431740      -0.00033441       0.00072596       0.02039175
Sn       1.79148672       1.79916406       2.17150631       0.00069372      -0.00080233       0.02083860
14
Lattice="5.624586498248634 0.029621367315374018 -2.162628327444851 -1.2407717041532405 6.189503447116053 -2.6296735529051554 -0.002653436927429102 -0.11260904637534823 7.628850259556835" Properties=species:S:1:pos:R:3:forces:R:3 structure_index=15 total_energy=-40.41450119018555 stress="0.008105549961328506 -0.0005148565978743136 -0.00019438656454440206 -0.0005148429772816598 0.006331560201942921 0.002519001020118594 -0.00019429381063673645 0.0025190270971506834 0.012253745459020138" pbc="T T T"
Li       4.34298207       0.44621145       3.51735385      -0.01723064      -0.00500057       0.00056898
Li       3.96737478       3.21789179       2.93233570       0.02164134      -0.01040388      -0.00517748
Li       0.09728851       1.50410358       2.14090888      -0.02170967      -0.00990051       0.02777891
Li       2.54548360       5.77239878       3.65454437       0.00410594      -0.00269006       0.00591676
Li       2.10696878       5.01148689      -1.29140047       0.01539169       0.00020697      -0.01064875
Li       4.37657216       4.05418377       0.33588279       0.01615271       0.00381721      -0.01354635
Li       1.47306985       0.45672422       4.55690406      -0.00184236       0.00085790       0.00525965
Li       0.64340667       2.45065522      -0.79583287       0.00348358       0.00719352      -0.01264401
Ga       1.10330893       3.26828197       4.11410509      -0.03037259       0.00082722       0.00328566
Ga      -0.73493277       4.91100988      -0.08675185      -0.01618667       0.01189819       0.00366751
Ga       2.95321956       1.58065656       0.78582431      -0.00458883      -0.00169271       0.00375588
Sn       1.60771799       4.06385960       1.43024623       0.01390909       0.01875715      -0.00054856
Sn      -0.23494174       5.82350802      -2.72708703      -0.00046281       0.00848166      -0.01618703
Sn       3.41554078       2.51339045      -2.06479925       0.01770921      -0.02235210       0.00851882
13
Lattice="5.605931030927392 -0.00895840181542812 -0.0032458532829427425 -2.799931796673183 4.857708852018522 0.005077159360929996 -0.007963711993521028 0.0014877597214976858 9.977290476784548" Properties=species:S:1:pos:R:3:forces:R:3 structure_index=16 total_energy=-39.35749053955078 stress="0.009032616391777992 -0.0011759273475036025 -0.0006185620441101491 -0.0011757893953472376 0.007936951704323292 -0.00037200271617621183 -0.0006183855002745986 -0.0003718035004567355 -0.023853644728660583" pbc="T T T"
Li       2.21323802       1.47332746       6.68618295       0.00332672      -0.00269720      -0.00038042
Li      -0.58052987       3.08813556       6.68784240      -0.00149964       0.00126935       0.00062532
Li       2.22409946       1.46531732       1.69765505      -0.00021408       0.00029608       0.00052764
Li      -0.58133827       3.09180405       1.70113427       0.00080233      -0.00044728       0.00022751
Ga       0.81532789       2.27729638       9.04159607       0.00029984      -0.00007511      -0.00918532
Ga      -0.58471894       4.70602850       9.04514096      -0.00033813       0.00137919      -0.01060276
Ga       3.62494028       2.27530818       4.32970090      -0.00077231      -0.00050475       0.00946274
Ga      -0.57822486       4.70864890       4.33522165      -0.00017271       0.00088070       0.00958372
Ga       3.61906062       2.27290173       9.04275135      -0.00082424      -0.00002463      -0.01066158
Ga       0.82246135       2.28131482       4.33304958      -0.00034148       0.00011769       0.00844014
Sn       2.22364533       4.70652848       3.16640032      -0.00005814       0.00052298      -0.02975900
Sn       2.22666512       4.69983964       0.22674881       0.00094314      -0.00158850       0.03458677
Sn       2.21993183       4.70477268       6.68600313      -0.00115129       0.00087150      -0.00286483
9
Lattice="4.382064187845604 0.0027276890157173525 -1.4539466917208084 -1.4133030144935228 5.7653519710704675 -4.248680610520759 0.19974289906298195 -2.017490486199574 7.928634663826288" Properties=species:S:1:pos:R:3:forces:R:3 structure_index=17 total_energy=-25.633560180664062 stress="-0.022319890558719635 0.009593301452696323 0.006953504402190447 0.009593273513019085 -0.025548063218593597 0.028771517798304558 0.006953615695238113 0.0287716593593359 -0.0038031060248613358" pbc="T T T"
Li       1.02269091       4.26170882      -0.75477406      -0.00334780      -0.00304385      -0.00995540
Li       2.93829728       3.08653433      -2.31400851       0.00512080       0.02092640       0.01556017
Li       2.23307006       1.27203863       2.88770783       0.00332036       0.00312033       0.01005908
Li       3.31330319      -1.67043833       6.13761341       0.00600733       0.02538159       0.01851014
Li       1.35573476       1.43890046       0.24401173      -0.00598069      -0.02549771      -0.01841296
Li       0.11772059       4.46466578      -3.48159903      -0.00511812      -0.02077230      -0.01561597
Ga      -0.56315914       2.76549494       1.79346764       0.00001259       0.00007225       0.00002717
Sn       0.63710776      -0.25983838       5.40516972       0.00076705      -0.00157669       0.00210666
Sn       4.03196347       0.02826213       0.97656403      -0.00078151       0.00138997      -0.00227886
4
Lattice="4.281750504281644 9.890598030589339e-05 -0.004021209659819586 -0.000924834976321822 4.281682186447471 -0.0012849116897158917 0.0007661485133169825 0.00024462047917338757 4.361173163835981" Properties=species:S:1:pos:R:3:forces:R:3 structure_index=18 total_energy=-12.532857894897461 stress="-0.015911173075437546 -0.0012203268706798553 -0.007825277745723724 -0.0012203184887766838 -0.016095656901597977 -0.002500881440937519 -0.0078253373503685 -0.0025008912198245525 0.04607583209872246" pbc="T T T"
Li       0.97426337       1.53610949       3.82922793      -0.00026880       0.00055734      -0.00001331
Ga       3.11438411       1.53655021       1.64667510       0.00021542       0.00017423       0.00034597
Ga       0.97315040       3.67706737       1.64793814      -0.00000634       0.00006824       0.00051410
Sn       3.11446684       3.67777910       3.82695926       0.00005974      -0.00079981      -0.00084676
4
Lattice="3.860760439468531 -3.4820447941256335e-05 -1.723950456293444 -0.7708208947252734 3.788576814326928 -1.724750950443387 -0.0003198322338186845 0.0006961310343475119 5.177308727394315" Properties=species:S:1:pos:R:3:forces:R:3 structure_index=19 total_energy=-11.976408958435059 stress="-0.07503387331962585 0.006864822003990412 0.020679647102952003 0.006864876486361027 -0.03933323174715042 0.014040771871805191 0.020679611712694168 0.014040970243513584 -0.04493949934840202" pbc="T T T"
Li      -0.29927161       1.81242751       0.23811328      -0.00284405       0.00233788      -0.00198174
Li       0.85768738       0.87043675       2.83141585      -0.00037581      -0.00092739      -0.00332067
Ga       1.24180222       3.71189073      -1.48790689       0.00151625      -0.00414836      -0.00060715
Sn       2.39928703       2.76017303       1.09694386       0.00170362       0.00273786       0.00590955
4
Lattice="4.2928309163668255 -0.00047013567812955094 0.002329558689836734 0.004290694024411399 4.292663980154562 0.006141476729668045 -0.00043568204817213903 -0.0011398294421138327 4.341064463011912" Properties=species:S:1:pos:R:3:forces:R:3 structure_index=20 total_energy=-12.532917976379395 stress="0.004742713645100594 0.005794904660433531 0.0045899017713963985 0.005794939585030079 0.004298399202525616 0.012047025375068188 0.004590053576976061 0.012047062627971172 -0.0028156510088592768" pbc="T T T"
Li       2.72855520       2.32140958       1.84799762       0.00080190      -0.00041716       0.00107415