# Thermal properties / unit cell (natom)

unit:
  temperature:   K
  free_energy:   kJ/mol
  entropy:       J/K/mol
  heat_capacity: J/K/mol

natom: 16   
cutoff_frequency: 0.00000
num_modes: 110160
num_integrated_modes: 110133

zero_point_energy:      13.5432290

thermal_properties:
- temperature:         0.0000000
  free_energy:        13.5432290
  entropy:             0.0000000
  heat_capacity:       0.0000000
  energy:             13.5432290

- temperature:        10.0000000
  free_energy:        13.4898928
  entropy:            19.3094871
  heat_capacity:      50.2213328
  energy:             13.6829877

- temperature:        20.0000000
  free_energy:        12.9575561
  entropy:            93.4245192
  heat_capacity:     176.5335605
  energy:             14.8260465

- temperature:        30.0000000
  free_energy:        11.5744408
  entropy:           183.0287278
  heat_capacity:     263.2290004
  energy:             17.0653027

- temperature:        40.0000000
  free_energy:         9.3207588
  entropy:           266.0425956
  heat_capacity:     311.5041114
  energy:             19.9624626

- temperature:        50.0000000
  free_energy:         6.2882409
  entropy:           338.7785142
  heat_capacity:     339.0125944
  energy:             23.2271666

- temperature:        60.0000000
  free_energy:         2.5763509
  entropy:           402.1792042
  heat_capacity:     355.6775474
  energy:             26.7071032

- temperature:        70.0000000
  free_energy:        -1.7296646
  entropy:           457.8683697
  heat_capacity:     366.3888262
  energy:             30.3211213

- temperature:        80.0000000
  free_energy:        -6.5601756
  entropy:           507.2950209
  heat_capacity:     373.6281799
  energy:             34.0234260

- temperature:        90.0000000
  free_energy:       -11.8585653
  entropy:           551.6131166
  heat_capacity:     378.7285287
  energy:             37.7866152

- temperature:       100.0000000
  free_energy:       -17.5784174
  entropy:           591.7184147
  heat_capacity:     382.4474478
  energy:             41.5934241

- temperature:       110.0000000
  free_energy:       -23.6812261
  entropy:           628.3064844
  heat_capacity:     385.2378562
  energy:             45.4324872

- temperature:       120.0000000
  free_energy:       -30.1346524
  entropy:           661.9224361
  heat_capacity:     387.3826836
  energy:             49.2960399

- temperature:       130.0000000
  free_energy:       -36.9112184
  entropy:           692.9986593
  heat_capacity:     389.0654873
  energy:             53.1786073

- temperature:       140.0000000
  free_energy:       -43.9873248
  entropy:           721.8824902
  heat_capacity:     390.4093115
  energy:             57.0762238

- temperature:       150.0000000
  free_energy:       -51.3425072
  entropy:           748.8563759
  heat_capacity:     391.4990120
  energy:             60.9859492

- temperature:       160.0000000
  free_energy:       -58.9588646
  entropy:           774.1526459
  heat_capacity:     392.3945785
  energy:             64.9055588

- temperature:       170.0000000
  free_energy:       -66.8206153
  entropy:           797.9644392
  heat_capacity:     393.1393578
  energy:             68.8333394

- temperature:       180.0000000
  free_energy:       -74.9137483
  entropy:           820.4538827
  heat_capacity:     393.7652817
  energy:             72.7679506

- temperature:       190.0000000
  free_energy:       -83.2257450
  entropy:           841.7582855
  heat_capacity:     394.2962822
  energy:             76.7083292

- temperature:       200.0000000
  free_energy:       -91.7453564
  entropy:           861.9948874
  heat_capacity:     394.7505741
  energy:             80.6536210

- temperature:       210.0000000
  free_energy:      -100.4624211
  entropy:           881.2645395
  heat_capacity:     395.1422149
  energy:             84.6031322

- temperature:       220.0000000
  free_energy:      -109.3677165
  entropy:           899.6545901
  heat_capacity:     395.4821908
  energy:             88.5562934

- temperature:       230.0000000
  free_energy:      -118.4528357
  entropy:           917.2411680
  heat_capacity:     395.7791866
  energy:             92.5126329

- temperature:       240.0000000
  free_energy:      -127.7100849
  entropy:           934.0910084
  heat_capacity:     396.0401392
  energy:             96.4717571

- temperature:       250.0000000
  free_energy:      -137.1323969
  entropy:           950.2629249
  heat_capacity:     396.2706432
  energy:            100.4333343

- temperature:       260.0000000
  free_energy:      -146.7132579
  entropy:           965.8090064
  heat_capacity:     396.4752502
  energy:            104.3970837

- temperature:       270.0000000
  free_energy:      -156.4466459
  entropy:           980.7755980
  heat_capacity:     396.6576932
  energy:            108.3627655

- temperature:       280.0000000
  free_energy:      -166.3269768
  entropy:           995.2041101
  heat_capacity:     396.8210570
  energy:            112.3301741

- temperature:       290.0000000
  free_energy:      -176.3490588
  entropy:          1009.1316912
  heat_capacity:     396.9679085
  energy:            116.2991317

- temperature:       300.0000000
  free_energy:      -186.5080527
  entropy:          1022.5917902
  heat_capacity:     397.1003977
  energy:            120.2694844

- temperature:       310.0000000
  free_energy:      -196.7994373
  entropy:          1035.6146296
  heat_capacity:     397.2203360
  energy:            124.2410978

- temperature:       320.0000000
  free_energy:      -207.2189793
  entropy:          1048.2276054
  heat_capacity:     397.3292583
  energy:            128.2138544

- temperature:       330.0000000
  free_energy:      -217.7627065
  entropy:          1060.4556278
  heat_capacity:     397.4284721
  energy:            132.1876507

- temperature:       340.0000000
  free_energy:      -228.4268846
  entropy:          1072.3214114
  heat_capacity:     397.5190967
  energy:            136.1623952

- temperature:       350.0000000
  free_energy:      -239.2079967
  entropy:          1083.8457254
  heat_capacity:     397.6020948
  energy:            140.1380072

- temperature:       360.0000000
  free_energy:      -250.1027245
  entropy:          1095.0476085
  heat_capacity:     397.6782979
  energy:            144.1144145

- temperature:       370.0000000
  free_energy:      -261.1079326
  entropy:          1105.9445553
  heat_capacity:     397.7484276
  energy:            148.0915529

- temperature:       380.0000000
  free_energy:      -272.2206530
  entropy:          1116.5526788
  heat_capacity:     397.8131119
  energy:            152.0693649

- temperature:       390.0000000
  free_energy:      -283.4380731
  entropy:          1126.8868511
  heat_capacity:     397.8728999
  energy:            156.0477988

- temperature:       400.0000000
  free_energy:      -294.7575229
  entropy:          1136.9608276
  heat_capacity:     397.9282733
  energy:            160.0268082

- temperature:       410.0000000
  free_energy:      -306.1764649
  entropy:          1146.7873559
  heat_capacity:     397.9796559
  energy:            164.0063510

- temperature:       420.0000000
  free_energy:      -317.6924847
  entropy:          1156.3782713
  heat_capacity:     398.0274220
  energy:            167.9863893

- temperature:       430.0000000
  free_energy:      -329.3032817
  entropy:          1165.7445820
  heat_capacity:     398.0719030
  energy:            171.9668885

- temperature:       440.0000000
  free_energy:      -341.0066619
  entropy:          1174.8965438
  heat_capacity:     398.1133931
  energy:            175.9478174

- temperature:       450.0000000
  free_energy:      -352.8005301
  entropy:          1183.8437275
  heat_capacity:     398.1521545
  energy:            179.9291473

- temperature:       460.0000000
  free_energy:      -364.6828837
  entropy:          1192.5950780
  heat_capacity:     398.1884212
  energy:            183.9108521

- temperature:       470.0000000
  free_energy:      -376.6518069
  entropy:          1201.1589679
  heat_capacity:     398.2224026
  energy:            187.8929081

- temperature:       480.0000000
  free_energy:      -388.7054645
  entropy:          1209.5432451
  heat_capacity:     398.2542867
  energy:            191.8752932

- temperature:       490.0000000
  free_energy:      -400.8420976
  entropy:          1217.7552756
  heat_capacity:     398.2842426
  energy:            195.8579874

- temperature:       500.0000000
  free_energy:      -413.0600189
  entropy:          1225.8019821
  heat_capacity:     398.3124225
  energy:            199.8409721

- temperature:       510.0000000
  free_energy:      -425.3576080
  entropy:          1233.6898791
  heat_capacity:     398.3389640
  energy:            203.8242304

- temperature:       520.0000000
  free_energy:      -437.7333076
  entropy:          1241.4251039
  heat_capacity:     398.3639918
  energy:            207.8077464

- temperature:       530.0000000
  free_energy:      -450.1856205
  entropy:          1249.0134453
  heat_capacity:     398.3876187
  energy:            211.7915055

- temperature:       540.0000000
  free_energy:      -462.7131052
  entropy:          1256.4603696
  heat_capacity:     398.4099472
  energy:            215.7754944

- temperature:       550.0000000
  free_energy:      -475.3143737
  entropy:          1263.7710440
  heat_capacity:     398.4310709
  energy:            219.7597005

- temperature:       560.0000000
  free_energy:      -487.9880882
  entropy:          1270.9503577
  heat_capacity:     398.4510748
  energy:            223.7441121

- temperature:       570.0000000
  free_energy:      -500.7329585
  entropy:          1278.0029420
  heat_capacity:     398.4700366
  energy:            227.7287185

- temperature:       580.0000000
  free_energy:      -513.5477393
  entropy:          1284.9331878
  heat_capacity:     398.4880275
  energy:            231.7135096

- temperature:       590.0000000
  free_energy:      -526.4312283
  entropy:          1291.7452616
  heat_capacity:     398.5051126
  energy:            235.6984760

- temperature:       600.0000000
  free_energy:      -539.3822638
  entropy:          1298.4431214
  heat_capacity:     398.5213517
  energy:            239.6836090

- temperature:       610.0000000
  free_energy:      -552.3997226
  entropy:          1305.0305296
  heat_capacity:     398.5367997
  energy:            243.6689004

- temperature:       620.0000000
  free_energy:      -565.4825182
  entropy:          1311.5110658
  heat_capacity:     398.5515072
  energy:            247.6543426

- temperature:       630.0000000
  free_energy:      -578.6295991
  entropy:          1317.8881386
  heat_capacity:     398.5655208
  energy:            251.6399283

- temperature:       640.0000000
  free_energy:      -591.8399470
  entropy:          1324.1649965
  heat_capacity:     398.5788833
  energy:            255.6256508

- temperature:       650.0000000
  free_energy:      -605.1125753
  entropy:          1330.3447372
  heat_capacity:     398.5916346
  energy:            259.6115039

- temperature:       660.0000000
  free_energy:      -618.4465278
  entropy:          1336.4303173
  heat_capacity:     398.6038113
  energy:            263.5974816

- temperature:       670.0000000
  free_energy:      -631.8408772
  entropy:          1342.4245605
  heat_capacity:     398.6154474
  energy:            267.5835783

- temperature:       680.0000000
  free_energy:      -645.2947236
  entropy:          1348.3301653
  heat_capacity:     398.6265745
  energy:            271.5697888

- temperature:       690.0000000
  free_energy:      -658.8071937
  entropy:          1354.1497128
  heat_capacity:     398.6372218
  energy:            275.5561082

- temperature:       700.0000000
  free_energy:      -672.3774392
  entropy:          1359.8856729
  heat_capacity:     398.6474165
  energy:            279.5425318

- temperature:       710.0000000
  free_energy:      -686.0046364
  entropy:          1365.5404106
  heat_capacity:     398.6571838
  energy:            283.5290551

- temperature:       720.0000000
  free_energy:      -699.6879843
  entropy:          1371.1161922
  heat_capacity:     398.6665474
  energy:            287.5156741

- temperature:       730.0000000
  free_energy:      -713.4267043
  entropy:          1376.6151905
  heat_capacity:     398.6755292
  energy:            291.5023848

- temperature:       740.0000000
  free_energy:      -727.2200391
  entropy:          1382.0394900
  heat_capacity:     398.6841496
  energy:            295.4891835

- temperature:       750.0000000
  free_energy:      -741.0672518
  entropy:          1387.3910912
  heat_capacity:     398.6924278
  energy:            299.4760666

- temperature:       760.0000000
  free_energy:      -754.9676250
  entropy:          1392.6719157
  heat_capacity:     398.7003816
  energy:            303.4630309

- temperature:       770.0000000
  free_energy:      -768.9204603
  entropy:          1397.8838098
  heat_capacity:     398.7080278
  energy:            307.4500732

- temperature:       780.0000000
  free_energy:      -782.9250774
  entropy:          1403.0285486
  heat_capacity:     398.7153821
  energy:            311.4371905

- temperature:       790.0000000
  free_energy:      -796.9808132
  entropy:          1408.1078394
  heat_capacity:     398.7224590
  energy:            315.4243800

- temperature:       800.0000000
  free_energy:      -811.0870215
  entropy:          1413.1233254
  heat_capacity:     398.7292724
  energy:            319.4116388

- temperature:       810.0000000
  free_energy:      -825.2430723
  entropy:          1418.0765887
  heat_capacity:     398.7358353
  energy:            323.3989646

- temperature:       820.0000000
  free_energy:      -839.4483509
  entropy:          1422.9691532
  heat_capacity:     398.7421596
  energy:            327.3863547

- temperature:       830.0000000
  free_energy:      -853.7022579
  entropy:          1427.8024878
  heat_capacity:     398.7482569
  energy:            331.3738070

- temperature:       840.0000000
  free_energy:      -868.0042080
  entropy:          1432.5780085
  heat_capacity:     398.7541379
  energy:            335.3613192

- temperature:       850.0000000
  free_energy:      -882.3536299
  entropy:          1437.2970812
  heat_capacity:     398.7598127
  energy:            339.3488891

- temperature:       860.0000000
  free_energy:      -896.7499658
  entropy:          1441.9610239
  heat_capacity:     398.7652907
  energy:            343.3365147

- temperature:       870.0000000
  free_energy:      -911.1926709
  entropy:          1446.5711093
  heat_capacity:     398.7705811
  energy:            347.3241943

- temperature:       880.0000000
  free_energy:      -925.6812126
  entropy:          1451.1285663
  heat_capacity:     398.7756923
  energy:            351.3119258

- temperature:       890.0000000
  free_energy:      -940.2150707
  entropy:          1455.6345823
  heat_capacity:     398.7806323
  energy:            355.2997075

- temperature:       900.0000000
  free_energy:      -954.7937366
  entropy:          1460.0903050
  heat_capacity:     398.7854086
  energy:            359.2875379

- temperature:       910.0000000
  free_energy:      -969.4167129
  entropy:          1464.4968440
  heat_capacity:     398.7900284
  energy:            363.2754152

- temperature:       920.0000000
  free_energy:      -984.0835131
  entropy:          1468.8552729
  heat_capacity:     398.7944985
  energy:            367.2633379

- temperature:       930.0000000
  free_energy:      -998.7936614
  entropy:          1473.1666302
  heat_capacity:     398.7988252
  energy:            371.2513047

- temperature:       940.0000000
  free_energy:     -1013.5466922
  entropy:          1477.4319215
  heat_capacity:     398.8030146
  energy:            375.2393140

- temperature:       950.0000000
  free_energy:     -1028.3421496
  entropy:          1481.6521201
  heat_capacity:     398.8070726
  energy:            379.2273645

- temperature:       960.0000000
  free_energy:     -1043.1795874
  entropy:          1485.8281692
  heat_capacity:     398.8110044
  energy:            383.2154550

- temperature:       970.0000000
  free_energy:     -1058.0585688
  entropy:          1489.9609825
  heat_capacity:     398.8148153
  energy:            387.2035842

- temperature:       980.0000000
  free_energy:     -1072.9786659
  entropy:          1494.0514458
  heat_capacity:     398.8185102
  energy:            391.1917509

- temperature:       990.0000000
  free_energy:     -1087.9394595
  entropy:          1498.1004177
  heat_capacity:     398.8220938
  energy:            395.1799541

- temperature:      1000.0000000
  free_energy:     -1102.9405387
  entropy:          1502.1087312
  heat_capacity:     398.8255704
  energy:            399.1681925
