20
Lattice="7.78045861402528 -0.23510261019600165 -2.3306588210724524 -3.676773302932047 6.576865522652222 -3.535255900801472 0.047100027179983184 0.10807871824026355 8.40180936028034" Properties=species:S:1:pos:R:3:forces:R:3 structure_index=0 total_energy=-62.06609344482422 stress="-0.0003070809179916978 0.0012538612354546785 -0.00026876875199377537 0.001253794296644628 -0.0006558357854373753 -0.0008570520440116525 -0.0002687519881874323 -0.0008572587394155562 -0.0027147058863192797" pbc="T T T"
Li       4.18399986       0.89117647       1.36307492      -0.01747876       0.00028932       0.00308230
Li      -0.66752041       1.71954903       4.87081594       0.01329965       0.01225080       0.01099487
Li       4.58660181       2.90641864      -1.04796952      -0.00202675       0.01175635       0.00794263
Li       1.25054794       0.23012911       0.15185503      -0.01089159      -0.00690649      -0.00177703
Li       0.11400235       5.47716181       0.36196373      -0.00344320       0.00021498       0.00226130
Ga       2.46343340       4.29500805       3.69659926       0.00859546       0.00236341      -0.00292501
Ga       1.85533705       1.35350573       3.04504244      -0.01457991       0.00843352      -0.00471242
Ga       4.45091101       1.76853539       4.18161585      -0.00890000      -0.00919617      -0.00524743
Ga       6.62202297       0.41380730      -0.18076899       0.01236976      -0.00773577       0.03978183
Ga      -2.44386277       6.02605634       2.02578798       0.01822220       0.00256977      -0.02574942
Ga       2.15159231       3.11511575       0.61426310      -0.01709677      -0.00254419      -0.00493576
Ga       2.49436331       5.26291667      -1.35255648       0.01122683       0.00511336       0.00486852
Ga       2.84753091       6.00446929       1.26794530       0.00595181      -0.00889796      -0.01518887
Sn       4.81725562       3.74492423       1.90765615      -0.01759932       0.01139423      -0.00432260
Sn      -0.16887514       4.63364704      -2.68619256       0.00833992      -0.01469818       0.00253048
Sn      -0.24476185       3.47443543       2.48046726       0.00368001       0.00101785      -0.00700941
Sn      -2.81667153       5.13759019      -0.81225229      -0.00365948      -0.00784795       0.00966671
Sn       4.12998703       0.05182463       6.72278129       0.02257715       0.01080928      -0.01629316
Sn       2.00816605       2.36715906       6.04230082       0.00605939       0.00739812      -0.00908956
Sn      -0.78324167       2.37297290      -0.47228975      -0.01464637      -0.01578426       0.01612201
12
Lattice="4.085095248234039 0.0011607131698856952 -0.7023469137969307 -0.12338093824802489 4.0822603060724365 -0.7067825023209645 0.043904750099647234 0.056867259833879434 12.491790659135118" Properties=species:S:1:pos:R:3:forces:R:3 structure_index=1 total_energy=-34.38224792480469 stress="-0.03356395289301872 -0.004089837893843651 0.0028093920554965734 -0.004089939408004284 -0.03507741540670395 -0.0015826330054551363 0.0028094707522541285 -0.0015824072761461139 -0.00978607963770628" pbc="T T T"
Li       2.36929276       3.72211533       3.77629621       0.00026181       0.00131827       0.00758249
Li       1.45944006       0.68864858      10.72158032       0.00224152       0.00161647       0.01549468
Li       0.02442577       3.40891386       2.37452796      -0.00287148      -0.00235279      -0.02035963
Li       0.68092111       4.08871887       6.18958447       0.00028971       0.00125038       0.00496308
Li       1.09623733       2.41619751       8.61238316      -0.00034439      -0.00069118      -0.00709336
Li       1.70954607       3.04176886      -0.04946564       0.00017414      -0.00036025      -0.00175539
Ga       2.12433842       1.36444595       2.35133221      -0.00362240      -0.00385699      -0.01902897
Ga       3.44419329       2.73413328      10.04146073       0.00296727       0.00282843       0.01413774
Ga       3.19675798       0.37181197       8.59232111      -0.00092287      -0.00115937      -0.00827854
Ga       0.39201490       1.68367405       4.50188657       0.00141591       0.00347251       0.01409310
Sn       2.78581247       2.04912770       6.19559527      -0.00175287      -0.00112846      -0.00134826
Sn       3.81349627       1.00097973      -0.04871261       0.00216362      -0.00093700       0.00159302
8
Lattice="4.457503059631668 0.012583035215093883 -0.002914976828740795 -0.01645607708055782 5.8642658153791345 -1.3503897173276722 0.004474710649789766 -0.04443282229249856 5.91608582182877" Properties=species:S:1:pos:R:3:forces:R:3 structure_index=2 total_energy=-23.90032196044922 stress="-0.022503601387143135 0.004945875145494938 0.0011831903830170631 0.004945937544107437 0.049872804433107376 0.0004850167315453291 0.0011830817675217986 0.0004851597477681935 0.0072175441309809685" pbc="T T T"
Li       0.30841433       4.20405048       1.09699901      -0.00161422       0.02901429       0.01291404
Li       0.31008209       4.24741156       4.09826175      -0.00077075      -0.00115555      -0.00443872
Li       2.54733845       0.35728428       3.99594709       0.00202345      -0.02824740      -0.00886054
Ga       2.53850147       2.97182431      -0.35637126      -0.00001989       0.00269403       0.00141327
Ga       0.31634243       1.41324880       2.57095057      -0.00160704      -0.00421123       0.01773921
Ga       0.31787735       1.42326203       5.43932823       0.00004796      -0.00774546      -0.00653799
Sn       2.54041101       3.17714466       2.60251317       0.00089262      -0.00199184      -0.00348305
Sn       2.54703866       0.06669259       1.02269184       0.00104785       0.01164315      -0.00874623
7
Lattice="4.2887075714030605 -0.0006633143318791272 1.4670157339548384 1.8929335898846542 3.8481796169541416 1.4682317524108912 -0.005490921190812993 -0.004072151028788253 7.025283896661701" Properties=species:S:1:pos:R:3:forces:R:3 structure_index=3 total_energy=-19.580141067504883 stress="0.05730937793850899 -0.0008641885360702872 0.0024944255128502846 -0.0008642837638035417 0.05798603221774101 0.001616266556084156 0.002494208049029112 0.0016163404798135161 0.04994586855173111" pbc="T T T"
Li       1.89422610       2.50712478       1.47204235      -0.01198810      -0.00718872       0.03742535
Li       2.77672076       3.05704221       5.90636626      -0.01707511      -0.01096151       0.04400302
Li       3.68256126       3.61970697       3.24633414       0.01574067       0.01102057      -0.04311946
Li       2.67101990       0.32107680       6.21348411       0.01299031       0.00757675      -0.03880642
Ga       1.06002753       1.98839698       3.91842068      -0.00149829      -0.00118983       0.00061557
Ga       3.50577674       0.84045566       3.76697931       0.00167296       0.00078155      -0.00053535
Sn       4.42432351       1.41180178       8.08861900       0.00015753      -0.00003881       0.00041728
8
Lattice="4.542320903320795 0.0004959909274119926 0.008128470996508293 -0.0003660758484662228 4.548782096395808 0.004248901615224172 -0.019585236709896797 -0.009600175466897974 8.706757647561796" Properties=species:S:1:pos:R:3:forces:R:3 structure_index=4 total_energy=-26.14810562133789 stress="0.00917563121765852 0.0003196617471985519 -0.007259917911142111 0.0003196352336090058 0.031108198687434196 -0.0026143770664930344 -0.007259966805577278 -0.002614363795146346 -0.009275595657527447" pbc="T T T"
Li       2.69202836       2.52917933       1.44383571      -0.00269692       0.00184593      -0.00548036
Li       2.68049520       2.52751490       5.78593268      -0.00033503       0.00028162       0.00702113
Ga       0.41355267       0.25006240       5.78106402      -0.00376297      -0.00072934       0.01386328
Ga       0.42053394       0.25377370       1.43698065       0.00208826      -0.00014692      -0.01258432
Sn       2.68817868       0.25396844       3.61542913      -0.00371191      -0.00394701      -0.00404457
Sn       0.41400327       2.52516445       3.60721108       0.00456564       0.00472052       0.00900473
Sn       0.40200023       2.52157940       7.96710903       0.00703415       0.00504638      -0.00767906
Sn       2.67687904       0.25145455       7.96637178      -0.00318122      -0.00707118      -0.00010082
12
Lattice="4.069958883063414 -0.0020432107803188804 0.00023932768069276093 -2.031915290781737 6.114484251001125 0.0003577984789670479 -0.0006034668875280559 -0.00015880629271535713 9.17018119507597" Properties=species:S:1:pos:R:3:forces:R:3 structure_index=5 total_energy=-36.475582122802734 stress="0.001953776692971587 -3.761980906347162e-06 -1.892144609882962e-05 -3.719759206433082e-06 0.007305049803107977 -1.547022293379996e-05 -1.885122765088454e-05 -1.5504883776884526e-05 0.0010401200270280242" pbc="T T T"
Li       3.54546253       0.53267162       7.09352171       0.00005847      -0.00400371       0.00097509
Li      -0.52187321       4.58829988       2.50045834       0.00008770       0.00484165      -0.03403607
Li       1.51255570       2.58628432       2.52503117      -0.00105827      -0.00156341       0.02603253
Li       3.54608365       0.53140912       2.51017922      -0.00010074      -0.00249924       0.00034606
Li      -0.52249586       4.59165484       7.10569566       0.00015226      -0.00175138       0.03256427
Li       1.51167414       2.58271617       7.07963994      -0.00036495       0.00584037      -0.02600721
Ga       1.51292788       4.60487496       0.21629422       0.00036393      -0.00257983       0.00176094
Ga      -0.52321734       2.57185369       4.80333822       0.00006628       0.00356195      -0.00144797
Sn      -0.52299810       2.60618526       0.21719460       0.00023206      -0.02942780      -0.00031287
Sn       1.51071723       0.57434275       4.80031134       0.00018282      -0.03711336       0.00337747
Sn       1.51090413       0.48739055       0.21801575       0.00022159       0.04294307      -0.00153104
Sn       1.51272299       4.57191384       4.80379888       0.00015889       0.02175172      -0.00172117
16
Lattice="4.447414006579171 -0.0005642458826515876 -0.0005433839186720895 -2.2225330054260573 5.458915638242705 -0.0005240682580696573 0.001352851648123646 0.000615532306519432 12.348417825233685" Properties=species:S:1:pos:R:3:forces:R:3 structure_index=6 total_energy=-44.327720642089844 stress="0.014987329952418804 9.02474275790155e-05 -9.445226169191301e-05 9.005616448121145e-05 0.012493720278143883 -0.0017898424994200468 -9.430493082618341e-05 -0.0017896034987643361 0.008246945217251778" pbc="T T T"
Li      -1.42689005       3.58021631      11.55578802       0.00039532      -0.03034353       0.00167832
Li       0.79595779       0.37698803       1.02686521      -0.00037224      -0.02959429       0.00151082
Li       0.79751150       0.05346211       9.20298921      -0.00010153      -0.00965600      -0.01234642
Li       3.02163404       2.21216713       8.92886595       0.00016989       0.02242528      -0.00189488
Li       3.02180149       2.14592235       5.40098210       0.00014854       0.02366032      -0.01131530
Li       0.79889219       5.32872635       7.20077235      -0.00045015       0.03695685       0.00177385
Li       3.01985125       0.21037219       3.02690353      -0.00016121       0.00812609      -0.01117272
Li      -1.42735256       3.50292846       2.75748898       0.00015364      -0.01693625       0.00044324
Ga       0.79629748       1.95238251       3.17504842       0.00009226       0.01442081      -0.00707283
Ga       0.79822972       3.76510470       9.35572927      -0.00002029      -0.01619606      -0.01102329
Ga       0.79864580       3.67608892       5.05388448      -0.00192729       0.04223255      -0.00052470
Ga       0.79585668       3.58753936       1.04978666       0.00035742      -0.02744485       0.01443212
Ga       0.79805870       2.13516479       7.22530713      -0.00010840       0.02540433       0.01386499
Ga       0.79650091       2.04345864      11.23686124       0.00084546      -0.04132606      -0.00749977
Sn       3.02035415       0.32734383      11.39929082      -0.00038870       0.00572096       0.01381167
Sn      -1.42531156       5.39559507       5.22280162       0.00136729      -0.00745009       0.01533488
12
Lattice="4.3539477024144135 0.003503791293966394 -1.4564543820609075 -0.005405350085668988 6.555321934163732 0.00014306662153390148 -0.0028987534001660912 0.0002672514612633225 7.273265047270127" Properties=species:S:1:pos:R:3:forces:R:3 structure_index=7 total_energy=-34.702964782714844 stress="0.020508352667093277 8.844484909786843e-06 -0.0023692897520959377 8.879890629032161e-06 -0.031529758125543594 5.862014222657308e-05 -0.0023692608810961246 5.872276597074233e-05 0.023772642016410828" pbc="T T T"
Li       0.13906728       0.46610064       0.59521975       0.00172781       0.01686728       0.00172361
Li       1.57689935       3.59974332       4.90919010      -0.01349663       0.01131151      -0.02531546
Li       1.58167424       0.48463296       4.91159944      -0.01750790      -0.01099122      -0.02835373
Li       2.31385974       5.32059172      -0.13140701      -0.00140297      -0.00028014       0.00024858
Li       3.04756072       3.60141764       2.09910115       0.01671841       0.01095876       0.02803363
Li       0.13789586       3.61690961       0.59826919      -0.00031509      -0.01893849      -0.00102577
Li       3.05202329       0.48427083       2.10100147       0.01315191      -0.00817072       0.02526040
Ga       3.77117558       2.04604060       4.23070581       0.00720081      -0.00282736       0.01948915
Ga       0.85785997       2.03947788       2.77842092      -0.00762034       0.00246311      -0.01686797
Sn       0.82729648       5.32006716       2.69569133       0.00847266       0.00060245       0.01216485
Sn       2.31552459       2.04310126      -0.13113008       0.00059742      -0.00068476      -0.00000800
Sn       3.79589590       5.32094500       4.31585189      -0.00752611      -0.00031043      -0.01534931
16
Lattice="4.669198036217509 0.00045980574929928417 -0.0011976232887091968 -0.0006837756610575279 5.816332020955843 -0.08335178323336329 0.0030095187846972227 0.04943407913094026 10.621141199706342" Properties=species:S:1:pos:R:3:forces:R:3 structure_index=8 total_energy=-46.32217788696289 stress="-0.013535701669752598 -0.00016713107470422983 -0.00018560646276455373 -0.00016729399794712663 -0.010107790119946003 -0.0024312979076057673 -0.00018563854973763227 -0.002431275090202689 -0.010450795292854309" pbc="T T T"
Li       0.99017307       4.23422140       3.39207320      -0.00193018       0.00224631      -0.00560323
Li       0.98947760       4.19526528       8.94199971       0.00265913      -0.00688622       0.00098870
Li       3.32231974       4.14898690       0.02893255      -0.00084102       0.00600307       0.01768718
Li       3.32537924       1.31589162       5.35608988      -0.00003389       0.03835029      -0.00407634
Li       3.32411505       2.78512400       2.57731413       0.00019264      -0.00563366      -0.00803677
Li       3.32273080       1.22866935       0.06354106      -0.00084687      -0.00645337       0.01621692
Li       0.98986168       1.22096655       9.00842520       0.00284251      -0.01171572       0.00723683
Ga       0.99044593       2.72381158       6.32879713       0.00007396       0.01756880       0.00970235
Ga       3.32476040       5.58854566       7.93643464      -0.00055161       0.01343219      -0.00404735
Ga       0.99035229       5.66512284       6.35750963      -0.00160013       0.01803801      -0.01469190
Ga       0.98746243       5.57211336       0.74890080       0.00131293      -0.00049378       0.03248501
Ga       3.32385095       5.65649745       2.44258052      -0.00047622       0.00313922      -0.03619508
Ga       0.98808458       2.72629494       0.88470710       0.00063588      -0.02437316       0.00925059
Sn       3.32408160       4.26982584       5.15050945       0.00280260      -0.00609642       0.01912630
Sn       3.32552130       2.67970149       8.14235723      -0.00344765      -0.01639112      -0.03647217
Sn       0.99031933       1.34570473       3.53853160      -0.00079209      -0.02073435      -0.00357104
11
Lattice="4.419167951609441 0.003635781202503818 -1.3208046326927494 -0.04542693330786666 5.327951967509818 -0.138340424791673 -0.034429142658312595 0.07286462675758007 7.939185426388585" Properties=species:S:1:pos:R:3:forces:R:3 structure_index=9 total_energy=-30.483449935913086 stress="-0.01923941634595394 -0.0006314199417829514 0.013062195852398872 -0.0006315159262157977 -0.0023401626385748386 -0.0015999000752344728 0.013062098063528538 -0.0016000854084268212 0.02218174748122692" pbc="T T T"
Li       2.81403674       2.92371938       0.37887087      -0.00054143      -0.00097014      -0.00069393
Li       2.01027158       2.44363088       5.74310103       0.00210115      -0.00188477       0.00921983
Li       1.59929144       4.81736113       4.37915119      -0.00082693      -0.02149421      -0.00814911
Li       3.58213611       3.47600273       2.95497421      -0.00150583       0.00128171      -0.00930618
Li       0.40945451       1.41122259       0.38591487       0.00408100      -0.00013697       0.01135350
Li       0.80026148       4.42770654       1.69694285      -0.00486922       0.00063225      -0.01312774
Li       3.99344679       1.10007748       4.32077131       0.00053368       0.02028723       0.00606650
Ga       3.21121941       0.36802591       1.70103031       0.00384922       0.01201739       0.01314149
Ga       2.42530411       0.22289902       7.12829197      -0.00172707      -0.01332408      -0.00626263
Sn       1.21604682       1.97480344       3.08438360      -0.00201160      -0.02899506      -0.00352872
Sn      -0.04148301       3.93694086       6.93731958       0.00091702       0.03258666       0.00128702
14
Lattice="4.532630549928433 0.003970039542002177 -1.1001718343438116 -0.013396404776143707 5.79856624709731 -0.03497937047227275 -0.027319212538602304 -0.1306003114698012 9.77383032302034" Properties=species:S:1:pos:R:3:forces:R:3 structure_index=10 total_energy=-40.345272064208984 stress="-0.007305631414055824 0.0002164624020224437 -0.0004675100208260119 0.000216563101275824 -0.00950649194419384 0.0008125766762532294 -0.0004674257361330092 0.0008125677122734487 -0.009228038601577282" pbc="T T T"
Li       3.30683209       5.35632343       7.60409226      -0.00169076       0.02503199      -0.00226974
Li       1.99504794       2.42939639       2.18680832      -0.00550258      -0.02168484      -0.01199330
Li       0.08167877       5.24933214       4.20013413      -0.00160498       0.02009868      -0.00293346
Li       1.32030014       0.94363780       9.29190732       0.00168045       0.02880623       0.00336390
Li       0.68775914       2.27101206       6.68798307      -0.00202583      -0.04210711      -0.00500889
Li       4.00417945       3.81435655       0.58805368       0.00011756       0.00077110      -0.00654329
Li       2.61914053       3.80945182       4.76471453       0.00397855      -0.00452494       0.01732685
Ga       0.06838478       2.57907373       4.14234221      -0.00040045      -0.03036220      -0.01318466
Ga       0.71132427       5.14609479       6.79922788       0.00000667      -0.03384429      -0.00474014
Ga       1.30595614       3.92526985       9.24476749      -0.00587725       0.01594161      -0.02663780
Ga       1.93368904       5.14234227       1.94497364       0.00633550       0.03735008       0.02685913
Sn       3.33321200       2.47098499       7.70305088       0.00341688       0.02113008       0.01257718
Sn       4.03470124       0.91038969       0.69775774      -0.00831692      -0.01009337      -0.02816879
Sn       2.61715598       0.89081124       4.74561167       0.00988318      -0.00651305       0.04135295
11
Lattice="4.344845196858852 -0.0010505879213843212 -0.0005692585396052185 0.0010010692879896133 4.135698886113852 1.1827214221181174e-05 0.001428462055725746 0.00014773062635803095 11.749076921528463" Properties=species:S:1:pos:R:3:forces:R:3 structure_index=11 total_energy=-31.97246551513672 stress="0.021825237199664116 6.570789992110804e-06 -0.0002007267321459949 6.550426405738108e-06 0.022432558238506317 0.00037171263829804957 -0.0002004537673201412 0.00037175152101553977 0.02200922742486" pbc="T T T"
Li       1.61171908       2.34994118       9.48801672       0.00004118       0.00025342      -0.01016565
Li       3.78360445       2.34917278       3.50257426       0.00011260       0.00065390      -0.03116957
Li       1.61099952       0.28222875       7.53998474      -0.00002648      -0.00018695       0.00132145
Li       3.78284221       0.28158603       1.66013420       0.00023751      -0.00010221      -0.02442200
Li       1.61142004       2.35000380       5.28013455      -0.00007193       0.00004243       0.03403386
Li       1.61171457       0.28220238      11.31451529      -0.00024772       0.00003760       0.02580946
Ga       3.78376873       0.28168855       9.60457790       0.00005154      -0.00046440      -0.00593234
Ga       3.78457405       2.34929189      11.38726287       0.00002267       0.00068181       0.01089062
Sn       1.61104253       2.35020483       1.63612645      -0.00036385      -0.00088812      -0.00931659
Sn       3.78378471       2.34949588       7.47151931       0.00048021      -0.00000718      -0.01213069
Sn       3.78344650       0.28159659       5.33588136      -0.00023570      -0.00002027       0.02108142
4
Lattice="4.28659035265541 0.00040448995855753566 -0.00029662038511903225 -0.0009646198807064362 4.2859821694035265 0.0003650811557095645 0.00022109710409337358 -0.00027429728561089155 4.341723304402277" Properties=species:S:1:pos:R:3:forces:R:3 structure_index=12 total_energy=-12.158568382263184 stress="0.026818210259079933 -0.001627360936254263 -0.0004117278440389782 -0.0016271874774247408 0.022286493331193924 0.0005029293242841959 -0.0004116312484256923 0.0005028570885770023 -0.09501674771308899" pbc="T T T"
Li       1.25317390       2.17469377       0.92767811       0.00009152       0.00153164      -0.00141604
Ga       1.25357253       0.03317268       3.09699806       0.00055717      -0.00139218       0.00098332
Ga       3.39634422       2.17578214       3.09680342       0.00015867      -0.00028356       0.00159164
Sn       3.39712722       0.03239863       0.92607857      -0.00080735       0.00014408      -0.00115891
15
Lattice="4.2996893973031245 -0.003119337228973709 -0.00041179853515677334 -2.146763304375599 4.7712024616761655 1.157506746614082 0.0016077549823254518 0.8610452939314 15.480868285190365" Properties=species:S:1:pos:R:3:forces:R:3 structure_index=13 total_energy=-46.621315002441406 stress="-0.001215727417729795 4.782968608196825e-05 -8.277354936581105e-05 4.78824476886075e-05 -0.015253516845405102 -0.0015083106700330973 -8.283334318548441e-05 -0.0015084027545526624 -0.005026944447308779" pbc="T T T"
Li       0.41559569       1.01875471      14.62067947       0.00039642      -0.01276276       0.01728790
Li       0.41540068       1.85815055       7.75031481      -0.00086572      -0.02693200       0.00663860
Li       2.56558377       4.07190739       7.28476841       0.00053592      -0.03422005      -0.00450239
Li       0.41455186       0.98396904       3.39837962      -0.00037140       0.00282070      -0.01364932
Li       0.41690576       2.70169438      11.85526547      -0.00039098       0.02575999      -0.01438192
Li      -1.73219342       4.90280602      11.34340260       0.00044785       0.00813936       0.00295103
Ga       0.41686353       4.43970407       9.33572996       0.00046455       0.00711833       0.01977151
Ga       0.41584320       2.72592864       0.82440116      -0.00017870       0.01556465      -0.00085325
Ga       2.56560850       3.17337572       2.91131116       0.00028052      -0.02596353       0.00659770
Sn       0.41570006       3.53003290       5.14427989      -0.00076731      -0.02243733      -0.00337274
Sn       2.56433355       0.57174038       1.27067310      -0.00049722       0.00628058      -0.00362618
Sn       2.56691141       3.20961491      14.00698231       0.00077574       0.03614318       0.02779246
Sn       0.41882978       5.34512303      13.55010838      -0.00125647      -0.02397025      -0.01700616
Sn       2.56358747       1.35217146       5.67624640       0.00205970       0.00604370       0.00103734
Sn       2.56603102       2.32272647       9.74181596      -0.00063290       0.03841540      -0.02468458
16
Lattice="6.093386397415085 0.12539639660690782 0.986303127769266 0.33318792737788533 6.073966507010816 -0.9784446614959285 0.198024351958304 0.05360383568945644 10.978393259386507" Properties=species:S:1:pos:R:3:forces:R:3 structure_index=14 total_energy=-53.9422721862793 stress="-0.0007515033939853311 0.0004654322110582143 -0.0026907322462648153 0.0004653574142139405 -0.0008825405966490507 0.0014396867481991649 -0.0026906526181846857 0.001439716201275587 0.0010611072648316622" pbc="T T T"
Li       2.57537360       3.08541814       9.49991398      -0.02450718      -0.00385492       0.00355823
Li       5.84204985       3.67857915       3.10043719       0.00032697       0.00605002      -0.01186578
Li       3.33431339       4.44217130       6.81035859       0.01391325      -0.00337862      -0.00082691
Li       0.46973071       1.13767777       4.04192223       0.00718787       0.03353325       0.01184195
Ga       5.97786114       3.80152765       8.55189653      -0.00744489      -0.00191284      -0.03017890
Sn       1.49886471       1.23489100       6.95368387      -0.00043652      -0.01081713       0.01519147
Sn       0.61204215       4.50087510       4.84589126      -0.00906143       0.03607958      -0.01833500
Sn       2.15848801       1.99515625       1.52450003       0.00328679      -0.00699347       0.00719502
Sn       5.08797788       2.96097284       0.33486182      -0.00200518      -0.02100008      -0.00640574
Sn       3.32185730       2.41129177       4.46027965      -0.00821263       0.00163673       0.00362111
Sn       1.39068305       6.08301137       8.82822743      -0.00479068      -0.03465967       0.00172010
Sn       4.05831673       0.21823751      10.23168867      -0.00890245       0.00311659       0.00694585
Sn       4.53366456       1.27196586       7.30911929      -0.00493193       0.00040211      -0.00811108
Sn       2.54939937       5.00586991       0.92967571       0.01825899      -0.00904515      -0.00349239
Sn       3.54662979       5.42631931       3.91712151       0.00698746      -0.00307021      -0.00134650
Sn       5.27186891       0.44724950       2.51185041       0.02033153       0.01391381       0.03048860
4
Lattice="4.440384959612952 0.00010049168862567479 -0.0003042473856028782 -7.696819832312406e-05 4.0613889911603 -0.0009839218917548022 0.00033871808323268914 0.0006622070716273375 4.061377221762721" Properties=species:S:1:pos:R:3:forces:R:3 structure_index=15 total_energy=-11.800236701965332 stress="0.048223402351140976 5.1165516197215766e-05 0.00020776898600161076 5.1001647079829127e-05 0.10704056173563004 -0.0029727641958743334 0.0002078129182336852 -0.002972812857478857 0.1069854125380516" pbc="T T T"
Li       2.84078872       1.26138281       1.32053206      -0.00001277      -0.00006177       0.00013835
Li       2.84078651       3.29248039       3.35071833       0.00023612      -0.00024401       0.00018417
Ga       0.62086647       1.26144283       3.35159276      -0.00023858       0.00056694      -0.00038506
Sn       0.62049740       3.29193541       1.32033004       0.00001522      -0.00026116       0.00006254
20
Lattice="7.493210395881689 -0.015017044245662352 0.19862466805664628 -2.7213836795152324 6.545829688946859 -2.2874366635580627 0.10052184609484645 -0.030291999704019617 8.30828127917289" Properties=species:S:1:pos:R:3:forces:R:3 structure_index=16 total_energy=-60.83249282836914 stress="-0.013014928437769413 0.0010935961036011577 0.00842417310923338 0.00109373708255589 -0.016293903812766075 -0.003559545613825321 0.008424220606684685 -0.003559489967301488 -0.0009262657258659601" pbc="T T T"
Li       1.48048367       5.86264031       2.86055119      -0.00785919       0.00692446       0.01483589
Li      -0.71722237       2.74485820       3.87066599       0.00947329       0.00728243      -0.00848037
Li       4.09098410       3.32611006       0.56820954      -0.00438344      -0.00317970       0.04298757
Li       4.13211229       2.45007856       5.71725428      -0.00264835       0.03631927       0.02320508
Li       1.66252074       1.98021787       7.46947419       0.02384742      -0.01047723      -0.02727038
Li       4.05458710       6.26845841       1.15804278      -0.00731710       0.00590068      -0.01096845
Ga       1.68891989       1.16039584       4.56767642       0.02388489       0.02125963       0.00673432
Ga       1.76638244       0.08550492       1.55026042       0.01835320       0.00779395      -0.03012508
Ga       1.58146344       4.98580292      -0.22679884      -0.00808860      -0.00622539       0.02240501
Ga       6.70480619       0.57704968       6.15496605       0.02430215      -0.00417186      -0.02830890
Ga       4.07878216       5.23641750       6.55787269       0.00272143      -0.04533236      -0.00947656
Ga       1.72001159       3.99087524       5.28484164      -0.03994675       0.02153065       0.01619454
Ga       3.98454466       4.33802359       3.54233862      -0.02908142      -0.02092283      -0.02201023
Ga       6.70768315       1.53141532       1.16004433       0.02103362      -0.03049842       0.01094479
Sn      -1.05683310       4.72090294       1.52847930      -0.00759980       0.02684901      -0.00181593
Sn       4.32189095       1.32724169       2.97260338      -0.00180257       0.00629191       0.02547211
Sn      -0.84367784       3.39499805       6.89875538      -0.00717702      -0.03067150       0.00465826