16
Lattice="4.077439316882906 0.0006557046135373451 -0.0004457207759370748 -0.0007974626060264281 6.071479820391968 0.014876392606826707 0.001181678367101237 0.017408730192881243 12.197654132805825" Properties=species:S:1:pos:R:3:forces:R:3 structure_index=0 total_energy=-48.21439743041992 stress="-0.007618885021656752 -5.9022800996899605e-05 3.5609875340014696e-05 -5.903935743845068e-05 -0.01991860754787922 0.0029708726797252893 3.563742939149961e-05 0.0029709062073379755 -0.025902578607201576" pbc="T T T"
Li       3.27136158       4.76774209      11.98886879       0.00003810       0.00250061      -0.00340453
Li       1.23078925       3.26965587       4.24844182       0.00017137       0.00700871      -0.00812814
Ga       1.23245607       3.24670772      10.53679691      -0.00015212      -0.00035649       0.00746386
Ga       3.27046318       1.72259894       9.00135942       0.00046416       0.00351037       0.00677801
Ga       3.27197830       1.73774004      11.98677216      -0.00028155       0.00000699      -0.00090701
Ga       1.23194698       0.11151150       4.18208870      -0.00052400       0.00296799      -0.01655105
Ga       1.23279688       0.21296193      10.49317599      -0.00015199      -0.00072938       0.01471487
Ga       1.23200296       0.11979124       7.52001218      -0.00045772       0.01333285       0.02121043
Ga       1.23112544       3.30336663       7.50434561       0.00005558      -0.01133177      -0.00701937
Ga       3.27037785       4.74153489       9.03912323       0.00009629      -0.00655172       0.01024757
Ga       3.26935470       4.77497300       5.83790556       0.00047927       0.00892332       0.00248189
Ga       3.27054716       1.71194856       2.71335484       0.00017343       0.00080281      -0.00350244
Ga       1.23188197       3.23326758       1.29712698      -0.00022171       0.00514685      -0.00284033
Ga       3.27019886       4.74902725       2.73717216       0.00004785      -0.01369983      -0.00961283
Ga       1.23239290       0.18068288       1.22998277      -0.00022553      -0.00311854      -0.00767548
Sn       3.26977440       1.71516109       5.83056492       0.00048857      -0.00841276      -0.00325545
8
Lattice="4.7698989691311295 -0.00046014468784267323 0.0006945469539096906 0.00145526535718011 5.078355134896966 -2.9013734495961208 -0.0004116230406161735 -0.0006566201374341163 5.850271533837848" Properties=species:S:1:pos:R:3:forces:R:3 structure_index=1 total_energy=-20.604148864746094 stress="0.025878410786390305 0.001271927380003035 0.000938767974730581 0.0012719996739178896 0.035611189901828766 0.0025952619034796953 0.0009385911398567259 0.002595082623884082 0.03671402856707573" pbc="T T T"
Li       3.83386964       2.93989684       2.37515620      -0.00010806      -0.03129241       0.00063796
Li       3.83289220       0.49924274       3.77779620       0.00021864       0.02039869      -0.03329439
Li       1.44956645       3.82842557       0.84269724      -0.00086525      -0.02033464      -0.02999341
Li       3.83224656       0.50812440       0.96460116       0.00077850       0.01361140       0.02602187
Li       1.44910052       3.83109599      -1.96473494      -0.00027100      -0.02073093       0.03663235
Li       1.44842493       1.39598213      -0.56690311      -0.00032794       0.03580764       0.00053083
Ga       1.44825355       1.32193947       2.36049214      -0.00006686       0.00336107      -0.00456247
Sn       3.83366902       3.01127869      -0.55153446       0.00064197      -0.00082084       0.00402727
11
Lattice="4.474445850800094 0.01124788824558576 -1.3562312989611256 -0.014393367020330129 5.346868766881215 -0.004452152723416863 -0.006239595496373605 0.07949773904072274 8.038750128100949" Properties=species:S:1:pos:R:3:forces:R:3 structure_index=2 total_energy=-30.042308807373047 stress="-0.0039212824776768684 -0.00036575121339410543 0.0025493609718978405 -0.00036573101533576846 -0.004235693719238043 -0.0015207285759970546 0.0025493863504379988 -0.0015209148405119777 0.004123582970350981" pbc="T T T"
Li       0.22617086       3.77400241       0.98713480      -0.00336270      -0.02266170      -0.01473215
Li       1.44961090       0.28596637       4.98879207       0.00471170       0.01786356       0.01632405
Li       3.87132357       4.16837113       4.94945712      -0.00163309      -0.00715891      -0.00037563
Li       0.62938096       0.70779036       2.28994138       0.00066868      -0.02048882       0.00134430
Li       2.62719883       2.15056389       0.83359294       0.00580152       0.00672820       0.02027082
Li       3.45869511       1.83698352       3.57266439      -0.00181070      -0.00146607      -0.00675094
Li       2.24157807       5.08983390      -0.41460552      -0.00229377       0.00843530      -0.00625383
Li       1.03807159       3.34642388       3.65774362       0.00497175       0.00497610       0.01743803
Ga       1.82714623       2.81282936       6.25820743      -0.01276589      -0.01103347      -0.04659143
Sn       4.27607798       1.34918949       6.26674796       0.00528722       0.02312325       0.01823736
Sn       3.05279798       4.64286962       2.25693543       0.00042527       0.00168256       0.00108944
4
Lattice="4.221746633131806 -0.00034914115801271996 2.4420217703866314 1.4040309176690209 3.979944255730281 2.4410703266308396 -0.000317278947026348 -0.0003480925044516503 4.8759745812594115" Properties=species:S:1:pos:R:3:forces:R:3 structure_index=3 total_energy=-12.345769882202148 stress="0.07089442014694214 0.0036383483093231916 0.0031099924817681313 0.0036383389960974455 0.06527727842330933 0.0041938358917832375 0.0031100804917514324 0.004193906672298908 0.06076230853796005" pbc="T T T"
Li       3.84618220       2.59781399       5.25937732      -0.00046220      -0.00015510      -0.00120836
Ga       5.25208024       3.59252812       7.69910807      -0.00007348       0.00027504      -0.00043642
Ga       1.03225067       0.60833323       5.25466947      -0.00143378      -0.00033826      -0.00057728
Sn       2.43775705       1.60313625       2.81672920       0.00196946       0.00021832       0.00222207
12
Lattice="4.226767617447716 -0.00040028792889657564 0.0008447256883310629 0.0005984033937498736 6.1339846885278835 -0.009503321984150518 -0.001368628442465878 -0.0178689612957378 9.042174147369167" Properties=species:S:1:pos:R:3:forces:R:3 structure_index=4 total_energy=-36.24908447265625 stress="0.028372619301080704 -0.00012256228365004063 -0.00016609592421445996 -0.0001224825537065044 0.02440895326435566 -0.0058890716172754765 -0.00016612758918199688 -0.005889144726097584 0.003911926411092281" pbc="T T T"
Li       3.14869614       2.48709252       0.53603714       0.00020931      -0.00744503      -0.01517346
Li       1.03611411       0.83501510       2.12878914      -0.00057454       0.00217697       0.00620179
Li       1.03545233       3.94814932       5.05760465      -0.00013214      -0.00209406       0.00305826
Li       3.14852053       2.39730972       3.65407247       0.00018260       0.00377509       0.01401413
Li       3.14830637       5.55800037       6.57272152       0.00015421       0.00537132       0.00583500
Ga       1.03540821       3.83520546       2.10346042       0.00022256       0.03243367       0.01996361
Ga       1.03476930       0.96206767       5.11306808       0.00024921      -0.01166806      -0.04430681
Ga       3.14818641       2.43899940       6.45740964      -0.00009201      -0.00224381       0.04942554
Ga       3.14889127       5.48224126       0.71234817       0.00048295      -0.00105509      -0.02795703
Sn       1.03507142       3.98332740       8.09034565      -0.00075840      -0.01747617      -0.00862812
Sn       1.03387567       0.91278223       8.11456290       0.00022965      -0.01613827      -0.00121884
Sn       3.14929728       5.45681340       3.63707590      -0.00017341       0.01436344      -0.00121407
9
Lattice="4.606028162953392 0.002172713767998425 -0.0006425890733745062 -2.304092047022245 3.9886337906991525 -0.0004903276822243295 0.0008576481195688668 0.001850288661357725 10.480264948651884" Properties=species:S:1:pos:R:3:forces:R:3 structure_index=5 total_energy=-28.530406951904297 stress="0.02089705877006054 0.000533881364390254 0.0004501246730796993 0.0005338831106200814 0.0227339006960392 -0.0007291648653335869 0.00045020581455901265 -0.0007290711509995162 -0.02423548512160778" pbc="T T T"
Li       2.04107973       3.31412086       7.68084482       0.00039623      -0.00035207      -0.01912175
Li       2.04073691       3.31271706       0.71502511       0.00001419      -0.00005510      -0.01304352
Li       2.04293742       3.31146873       4.21216176      -0.00029714       0.00033470       0.01491302
Ga       2.04289762       0.65290237       5.63291858       0.00026811      -0.00033976      -0.01753086
Ga      -0.26170301       1.98374717       9.83076847       0.00020097      -0.00039798       0.02803624
Ga       2.04290906       0.65215783       2.98089707      -0.00012571      -0.00019132       0.00914814
Sn       2.04173227       0.65455638       9.08184080       0.00013199       0.00012726      -0.04053131
Sn      -0.26062212       1.98206230       6.38127506      -0.00035370       0.00033070       0.04769588
Sn      -0.26077426       1.98089535       2.21238484      -0.00023494       0.00054360      -0.00956583
6
Lattice="3.318431089021299 0.00011049122501703376 7.671484555943642e-05 -8.864171997651412e-05 3.3183868221457855 0.00012166437125167002 0.0009269009270277507 0.0010177323506480038 10.32290204585488" Properties=species:S:1:pos:R:3:forces:R:3 structure_index=6 total_energy=-18.48587417602539 stress="-0.051428403705358505 6.820225098636001e-05 0.000275272352155298 6.82728859828785e-05 -0.05155525356531143 0.00030354864429682493 0.0002753204316832125 0.0003034479159396142 0.06515519320964813" pbc="T T T"
Li       1.40742804       0.92669510       2.45535335      -0.00058895      -0.00045113       0.00959066
Li       1.40830875       0.92858665       9.82874377       0.00003873      -0.00037870      -0.00730694
Li       1.40764656       0.92722971       6.14210081      -0.00003257      -0.00030276       0.00296255
Ga       3.06630987       2.58630011       0.97833688       0.00033330       0.00003372       0.00386231
Sn       3.06781583       2.58749315       8.06438157      -0.00054467      -0.00016671      -0.01523453
Sn       3.06578401       2.58477235       4.22657491       0.00079416       0.00126556       0.00612595
6
Lattice="3.25422547798 -0.03406167268442126 0.06210137584002248 0.023480585624122922 3.2528729088572734 0.06033054684062439 -0.1382264226898488 -0.119582121743693 11.669873790585516" Properties=species:S:1:pos:R:3:forces:R:3 structure_index=7 total_energy=-18.848222732543945 stress="0.005135807208716869 -0.002751657273620367 -0.01976933144032955 -0.0027516537811607122 0.0034354617819190025 -0.016688060015439987 -0.019769372418522835 -0.01668802835047245 -0.0011097805108875036" pbc="T T T"
Li       0.80895377       1.54723153       6.43866303      -0.00282239      -0.00104343       0.00054167
Li       2.53525146       0.01732742       1.50784389       0.00359934       0.00160212      -0.00136250
Ga       0.88470368       1.62477243       3.16627203      -0.00385361      -0.00396372      -0.00235196
Ga       2.46029157      -0.05914917       4.79190040       0.00358977       0.00366266      -0.00007529
Sn       2.39148603       3.10564913       8.57643676       0.00316570       0.00227016      -0.01607310
Sn       0.84065935       1.59375215      11.08830740      -0.00367880      -0.00252779       0.01932118
12
Lattice="3.9866434465793525 -0.001665679218264048 -1.1712738583057205 -1.0737232128863572 6.9134287160579735 -3.665277610206855 0.0683951651033242 -0.4662172269033473 7.6029360159120065" Properties=species:S:1:pos:R:3:forces:R:3 structure_index=8 total_energy=-33.93767166137695 stress="0.008116358891129494 -0.005653676576912403 -0.005328643135726452 -0.0056535666808485985 0.012937083840370178 -0.02064802497625351 -0.005328773055225611 -0.020647970959544182 -0.011306791566312313" pbc="T T T"
Li       1.09142828       4.77106769       0.26434452       0.00328689       0.04100830       0.01246219
Li       1.85100424       4.08421995       2.85454042      -0.00041638      -0.00079456      -0.00198288
Li       2.76793933       6.47558258      -1.40109795      -0.00078451       0.00008603      -0.00180780
Li       3.03577038       0.39745107      -0.47582540      -0.01022177      -0.02449255      -0.03622480
Li       1.61316949       1.42853005       2.04867577       0.01170862      -0.01030657       0.03919635
Li       2.53431622       3.61193555      -2.18803858      -0.00971039      -0.02025873      -0.03472123
Ga       0.10272104       2.25291458       4.27605636       0.00485309       0.01089838       0.01540341
Ga       0.84050146       2.09577428      -0.58052334      -0.00315247      -0.00517823      -0.01253846
Ga       2.35867732       0.55743205       4.58177872       0.00950054       0.01997512       0.03622534
Ga       3.31806007       3.04343421       0.47659066      -0.00599523      -0.00885856      -0.01773309
Ga      -0.44850753       5.78455591       2.39426411       0.00613262       0.01201499       0.01894515
Sn       0.28428627       5.52449009      -2.48046056      -0.00520101      -0.01409364      -0.01722419
5
Lattice="3.6370424171063793 -0.0017435595378671107 1.573289959624155 1.4513576600916362 5.248602208699186 1.5843985528419098 -0.32983083135215374 -0.06233409925517649 5.694565057563446" Properties=species:S:1:pos:R:3:forces:R:3 structure_index=9 total_energy=-15.656754493713379 stress="0.017258338630199432 -0.010320793837308884 0.022447286173701286 -0.01032069232314825 -0.045409008860588074 0.021589146926999092 0.022447310388088226 0.02158912643790245 -0.029902609065175056" pbc="T T T"
Li       0.28326599      -0.13430013       3.58210152       0.01752691      -0.01325410      -0.03046734
Li       3.15952004       2.16137678       2.00515975      -0.01873866       0.01407121       0.03075770
Ga       4.26791114       3.63066087       4.36571789       0.00054425       0.00143774       0.00336609
Sn       1.93281473       2.13608007       4.77263333      -0.01187217      -0.03410751       0.02600196
Sn       2.95938501       5.14239141       2.40254749       0.01253969       0.03185266      -0.02965837
7
Lattice="4.393293246183499 -0.0048634398596279224 1.186686951816261 2.035804708250547 3.892105091035977 1.1848649134453195 0.10794732783331948 0.06181534034373192 8.388284647198747" Properties=species:S:1:pos:R:3:forces:R:3 structure_index=10 total_energy=-21.364234924316406 stress="0.01608124189078808 -0.0009692681487649679 0.01360645517706871 -0.0009691888117231429 0.018385695293545723 0.00964405108243227 0.01360662467777729 0.00964397843927145 -0.04226506128907204" pbc="T T T"
Li       3.05228181       0.56390358       2.38586603      -0.00659569      -0.00460806       0.02769723
Li       2.19013154       0.04088974       5.60278245       0.00054958       0.00024858      -0.00092186
Li       3.25819240       3.34929089       1.61321863       0.00747455       0.00491074      -0.02703354
Ga       5.00774858       1.74582272       3.87740112      -0.00205666      -0.00112527       0.00505076
Ga       1.41156658       2.22952744       8.51013761       0.00117564       0.00069435      -0.00609967
Sn       3.91145705       1.08003723       7.97645366      -0.00921033      -0.00628851       0.04232493
Sn       2.50763267       2.89517110       4.41107211       0.00866292       0.00616817      -0.04101782
5
Lattice="4.008514459567211 0.03025345851363855 1.6621352932902413 1.9489756109409277 5.075058620808663 0.8614867338052028 0.0906369940940301 -0.05471372534434689 5.439526261289767" Properties=species:S:1:pos:R:3:forces:R:3 structure_index=11 total_energy=-16.436405181884766 stress="-0.007061039097607136 0.011166217736899853 0.0038622829597443342 0.011166353709995747 0.034149959683418274 -0.034983716905117035 0.003862250130623579 -0.03498382493853569 -0.03383365273475647" pbc="T T T"
Li       2.17733980       1.70470632       6.20818246       0.00394564       0.01165695      -0.00893061
Ga       3.33067537       2.78018088       3.41734444      -0.01081054      -0.00273556       0.01801038
Ga       5.67986218       4.78777012       3.37156504       0.00392232       0.01130676      -0.00958655
Sn       4.52165109       3.78067883       6.17496604       0.00748478      -0.00981470      -0.00862012
Sn       0.98246743       0.78481411       3.45081402      -0.00454221      -0.01041347       0.00912692
4
Lattice="4.306078884085867 0.00015989405316749875 -0.0012454417181467455 -0.0008171414468201397 4.316741180981989 -0.0018558100872428948 0.0002413904329903641 0.0002183522862221024 4.314512036152952" Properties=species:S:1:pos:R:3:forces:R:3 structure_index=12 total_energy=-12.53257942199707 stress="-0.05707400664687157 -0.0015752020990476012 -0.0023714208509773016 -0.0015751821920275688 0.08313058316707611 -0.0025689704343676567 -0.002371368231251836 -0.002568899653851986 0.07748591899871826" pbc="T T T"
Li       3.28683591       2.22947374       1.31201788       0.00011253      -0.00009156      -0.00162944
Ga       1.13447212       0.07110624       1.31292468      -0.00038524      -0.00004602      -0.00180073
Ga       1.13406036       2.22957573       3.46837917      -0.00018722      -0.00028766       0.00113407
Sn       3.28736745       0.07102446       3.46850838       0.00045993       0.00042525       0.00229611
6
Lattice="4.410342020357404 -0.0024587211512409916 -0.0007607249256304252 -2.201225201808536 3.8217718263989866 0.0011052835840076622 0.0016951920145883725 -0.0016847250510091056 7.196766079931108" Properties=species:S:1:pos:R:3:forces:R:3 structure_index=13 total_energy=-18.500764846801758 stress="-0.006631623487919569 0.0009972567204385996 5.521176262845984e-06 0.0009972680127248168 -0.0063864788971841335 1.9043873180635273e-05 5.492875061463565e-06 1.899496237456333e-05 0.06029856577515602" pbc="T T T"
Li       2.83996158       2.18207568       5.21373960      -0.00003538       0.00011787       0.00547533
Ga       0.63651309       3.45659813       7.19175196       0.00080005      -0.00051115       0.00032912
Ga       0.63697512       3.45636596       3.24893964      -0.00032033       0.00037570      -0.00025426
Ga       0.63397523       0.90958991       3.88151227      -0.00022144       0.00001227      -0.02122717
Ga       0.63354731       0.90986752       6.56254676       0.00016553      -0.00037902       0.01485255
Sn       2.84074139       2.18182768       1.62070184      -0.00038843       0.00038433       0.00082444
8
Lattice="4.257760763821913 -0.011806161797431105 0.0011709099558851767 0.0044848662231137875 4.237531003507166 0.004596544672892265 -0.004045087327807548 -0.010192069955481171 8.629359345367416" Properties=species:S:1:pos:R:3:forces:R:3 structure_index=14 total_energy=-24.51974105834961 stress="-0.01475538033992052 -0.009172537364065647 -0.001405603950843215 -0.009172608144581318 -0.02023089863359928 -0.000736364396288991 -0.0014056311920285225 -0.0007363819750025868 0.02800813503563404" pbc="T T T"
Li       2.27232413       4.03415702       3.02789428       0.00024046      -0.00033296       0.00138791
Li       2.26950096       1.91262711       5.26415361      -0.00015784      -0.00034135       0.01110309
Li       2.27069649       1.91718749       0.79000528       0.00028729      -0.00011953      -0.01060605
Ga       0.13920617       1.91511472       7.34174912      -0.00016623       0.00037108      -0.00045897
Ga       2.27012047       4.02823291       7.34604898       0.00011658      -0.00004111      -0.00224584
Ga       0.14211196       1.92048664       3.02606738      -0.00081229       0.00020302       0.00123146
Sn       0.14252961       4.03703607       5.14337986       0.00018651      -0.00006461       0.00796525
Sn       0.14406364       4.04148263       0.91524929       0.00030551       0.00032546      -0.00837686
18
Lattice="5.336335424142739 -0.06613348639806362 -0.7758501348606733 -1.1047550597642668 7.200669729247023 -1.3172829592065318 -0.18261781656640091 -0.19272475095863392 8.585611259126926" Properties=species:S:1:pos:R:3:forces:R:3 structure_index=15 total_energy=-51.62555694580078 stress="0.0008093643700703979 0.0023470171727240086 0.002173912012949586 0.002347086789086461 0.00576108368113637 0.003576755290850997 0.0021737038623541594 0.003576594637706876 0.004539676010608673" pbc="T T T"
Li       2.28925568       2.65612238      -0.70514582      -0.01872431      -0.02986207      -0.00143495
Li       3.62578078       4.70524974       7.02111479       0.01106990      -0.02264109       0.03837354
Li       1.10534359       5.22561730       0.22804055       0.00311715      -0.03027429       0.01184435
Li       3.67638926       0.34212524       0.97866629      -0.01405584      -0.02542430       0.00554721
Li      -0.14845010       2.62594689       4.05156362      -0.00983854       0.01317745      -0.02857641
Li       0.93898402       5.06590056       2.99510269       0.01187608       0.01415300       0.01931304
Li       0.82008024      -0.03884755       5.53042597      -0.00284484       0.01049928      -0.01856030
Li      -0.39771771       2.24163634       6.77665230      -0.00209047      -0.00756555      -0.01938321
Li       3.33362387      -0.00775139       6.68557333      -0.01056981       0.01961431       0.00649316
Li       1.02388763       0.36961727       2.72681390       0.00478659       0.00779422      -0.03123449
Li       3.51845590       4.82836692       4.19007963       0.01199402       0.02973621       0.02317053
Ga       3.68100659       5.31957762       1.33124815       0.02748389       0.00879465       0.01113641
Ga       2.39176569       2.23893042       5.08514967      -0.00512326       0.02149962      -0.00361497
Ga       3.58669268       0.16203816       3.84428986      -0.00845731       0.01615141      -0.00185241
Sn       0.91435324       0.11006677      -0.22218101      -0.00384381       0.00658919       0.01066657
Sn      -0.28903996       2.81941005       1.05644459      -0.00856038      -0.02526771      -0.02061427
Sn       0.94218679       4.65345777       5.89601400       0.01007095      -0.00510901       0.01181776
Sn       2.51756606       2.84427417       2.26606339       0.00371000      -0.00186534      -0.01309154
12
Lattice="4.154850254310622 -0.00027814585183126274 0.001594192265233532 0.0005208831795209523 6.0374116443317885 -0.07292814021245721 -0.0018977006677510565 -0.005955000740117819 8.979976545909373" Properties=species:S:1:pos:R:3:forces:R:3 structure_index=16 total_energy=-36.0826416015625 stress="0.007089782971888781 0.00019888224778696895 0.00032339972676709294 0.00019888985843863338 -0.003169010626152158 -0.0009429131750948727 0.0003234855248592794 -0.0009429078781977296 0.019126156345009804" pbc="T T T"
Li       1.92546157       2.20489555       3.19980009       0.00037184       0.01314640      -0.01236865
Li       1.92653607       5.19558974       0.33964920      -0.00011685      -0.01085653       0.03381408
Li       4.00340405       3.73983409       4.75605956      -0.00027165      -0.01535667      -0.00117537
Li       4.00248872       0.77082751       7.65619160      -0.00022461       0.01146174      -0.01325796
Ga       4.00197498       3.72837989       7.76984271       0.00071019       0.01019723      -0.00040518
Ga       1.92539791       5.22880728       3.22035968       0.00072845      -0.00553914       0.00363005
Ga       4.00359068       0.81940327       4.66805616      -0.00092651      -0.00552378       0.00442557
Ga       4.00302532       0.60390336       1.86907567       0.00001237       0.02005161      -0.02422893
Ga       1.92571429       2.26150237       6.15905114      -0.00020160      -0.01650627      -0.03004085
Ga       4.00361792       3.74845647       1.83793269      -0.00034197       0.03486692       0.01960643
Sn       1.92526937       5.28516712       6.19500523       0.00071011      -0.02604596      -0.02766708
Sn       1.92651177       2.17899184       0.25709046      -0.00044974      -0.00989557       0.04766787
15
Lattice="6.2897274708784545 -0.09427325434220475 2.8670174898663827 2.18522055348282 6.061947537564048 3.4278512226806273 -0.02383586252762164 -0.0850985515440433 6.998002169859258" Properties=species:S:1:pos:R:3:forces:R:3 structure_index=17 total_energy=-42.12278747558594 stress="-0.0012783127604052424 0.0004571163735818118 -0.0001780944294296205 0.0004570942837744951 -0.004562453832477331 -0.0007572284666821361 -0.00017832433513831347 -0.0007573146722279489 -0.004928639158606529" pbc="T T T"
Li       2.09197784       0.77838222       8.17574681       0.01261691      -0.00385599       0.00537572
Li       5.39289458      -0.12831178       9.28969809      -0.03330310      -0.01494932      -0.01111647
Li       0.97386111       0.34588778       4.21933858      -0.01826628       0.01348694       0.01899220
Li       1.15565906       3.05511204       3.54875956       0.02070608       0.00627896       0.00869111
Li       4.65757841       2.26358094       7.45329303       0.00735415      -0.00046638       0.00631001
Li       5.12123090       3.91690359       4.98683126       0.00466293      -0.01248589      -0.00763036
Li       5.79457384       5.22404703       7.64698119      -0.02331563      -0.01539991       0.01910859
Li       2.29824449       3.70366162       7.95303177      -0.00778402       0.00834403      -0.01209321
Ga       3.98613646       4.68779949       9.69309309      -0.02669844      -0.03188376       0.00614532
Ga       2.87104962       1.62740461       5.68263323       0.00113666       0.03170910      -0.01308422
Ga       3.58776764       1.96748490       3.12539480       0.01404437      -0.00091793      -0.01264651
Ga       5.53740098       1.29782020       4.98243243       0.03947003       0.02557741      -0.00087605
Ga       6.51122996       5.56213428      10.30122691       0.00245684      -0.00481061      -0.01563108
Sn       6.48012687       2.60411634       9.38829027       0.01533543      -0.00799356      -0.01095127
Sn       2.45970891       4.88704439       5.24725087      -0.00841594       0.00736688       0.01940625
8
Lattice="4.592300743977086 0.0019585081674612717 0.0015716003450087655 -2.2951165715104436 3.9774260952404297 -0.001987091140102181 -0.0024327155252943087 0.00303720682676416 8.667658801203078" Properties=species:S:1:pos:R:3:forces:R:3 structure_index=18 total_energy=-23.62958526611328 stress="0.018831422552466393 0.00013317288539838046 0.00015580265608150512 0.0001331564417341724 0.01854105480015278 0.00010764649050543085 0.00015573622658848763 0.00010746252519311383 -0.05053442716598511" pbc="T T T"
Li      -0.44474705       1.56994808       7.68575056       0.00007237      -0.00092829      -0.03224228
Li      -0.44850971       1.57081640       1.97390753       0.00216558      -0.00178119       0.01359641
Li       1.85507434       0.24200316       6.30517204      -0.00186324       0.00055765       0.01955471
Li       1.85085374       0.24285073       3.35236834       0.00059727      -0.00066540      -0.02629532
Ga       1.85094458       2.89729612       8.18960540       0.00022786      -0.00008176       0.02988429
Ga       1.85260854       2.89419807       3.84640174      -0.00155827       0.00129014       0.03786837
Sn      -0.44392527       1.56720913       4.85994962       0.00101933       0.00052446      -0.02588327
Sn       1.85177287       0.24246182       0.52657111      -0.00066089       0.00108438      -0.01648287
20
Lattice="6.536266666975226 -0.00043789153729123525 -2.0698045303792334 -0.3756104204465937 6.746808559692038 -1.0861618235794845 0.04124053001221266 0.013509508606403533 9.026141533543566" Properties=species:S:1:pos:R:3:forces:R:3 structure_index=19 total_energy=-61.90822219848633 stress="-0.009508258663117886 -0.0024573931004852057 0.00980423204600811 -0.0024574841372668743 -0.006682966370135546 0.004058791324496269 0.009804368019104004 0.004058776423335075 0.013517053797841072" pbc="T T T"
Li       1.77098529       1.08693083       1.62389160      -0.01642333       0.00130179      -0.00806283
Li       0.35757074       2.05663073       4.26669514       0.00523904      -0.00821298      -0.00787817
Li       5.34477503       4.84586522       1.99597729      -0.01600514      -0.00692172       0.00101447
Li       0.27496657       5.43050629      -0.84831977      -0.01505853      -0.00256949       0.00005342
Li       3.92495399       5.94003145       4.60121291      -0.00028412       0.01047716      -0.00228341
Li       4.05326855       4.05475201      -1.75009259      -0.00106474      -0.00289095       0.00478227
Ga       1.71414514       2.76899628      -0.79317293      -0.00189460      -0.00316126       0.00398101
Ga       3.00595828       0.08695799      -0.75038205      -0.00062544      -0.00236818      -0.00043595
Ga       4.13764907       2.42839471       0.68036066       0.01612086       0.00413044      -0.00599772
Ga       2.87534644       3.45131086       3.00310941       0.00926412      -0.00987447       0.01290107
Ga       2.96365717       1.71108070       5.71886150       0.00666042       0.01115015      -0.00241245
Ga       1.50440002       6.23025089       3.07039576      -0.00232192       0.00657928      -0.00522604
Ga       5.40870428       1.36059981      -1.85805847       0.02829480       0.01401669      -0.00174025
Ga       4.25196674       0.78819607       3.12042813      -0.00306087      -0.01047293       0.00821531
Ga       2.77588486       5.18709640       0.62308454      -0.01339072      -0.00461279       0.00305209
Sn       5.36644562       6.48189347      -0.44909697       0.00682227       0.02245716      -0.01791548
Sn       0.19582963       3.64150434       1.67219360       0.00960263       0.00008845      -0.00172623