# Thermal properties / unit cell (natom)

unit:
  temperature:   K
  free_energy:   kJ/mol
  entropy:       J/K/mol
  heat_capacity: J/K/mol

natom: 18   
cutoff_frequency: 0.00000
num_modes: 163296
num_integrated_modes: 163294

zero_point_energy:      75.0886124

thermal_properties:
- temperature:         0.0000000
  free_energy:        75.0886124
  entropy:             0.0000000
  heat_capacity:       0.0000000
  energy:             75.0886124

- temperature:        10.0000000
  free_energy:        75.0870789
  entropy:             0.5293489
  heat_capacity:       1.6325507
  energy:             75.0923724

- temperature:        20.0000000
  free_energy:        75.0647743
  entropy:             4.9528090
  heat_capacity:      15.1895159
  energy:             75.1638305

- temperature:        30.0000000
  free_energy:        74.9677089
  entropy:            15.3075891
  heat_capacity:      38.0269651
  energy:             75.4269365

- temperature:        40.0000000
  free_energy:        74.7458009
  entropy:            29.5449499
  heat_capacity:      62.0904929
  energy:             75.9275989

- temperature:        50.0000000
  free_energy:        74.3695886
  entropy:            45.9802090
  heat_capacity:      86.1444519
  energy:             76.6685990

- temperature:        60.0000000
  free_energy:        73.8214873
  entropy:            63.8404267
  heat_capacity:     110.6053963
  energy:             77.6519129

- temperature:        70.0000000
  free_energy:        73.0892757
  entropy:            82.7550248
  heat_capacity:     135.4756244
  energy:             78.8821275

- temperature:        80.0000000
  free_energy:        72.1637249
  entropy:           102.4686687
  heat_capacity:     160.2795276
  energy:             80.3612184

- temperature:        90.0000000
  free_energy:        71.0380148
  entropy:           122.7488913
  heat_capacity:     184.3962203
  energy:             82.0854150

- temperature:       100.0000000
  free_energy:        69.7075975
  entropy:           143.3746798
  heat_capacity:     207.2960301
  energy:             84.0450655

- temperature:       110.0000000
  free_energy:        68.1700398
  entropy:           164.1459007
  heat_capacity:     228.6277657
  energy:             86.2260889

- temperature:       120.0000000
  free_energy:        66.4247674
  entropy:           184.8918652
  heat_capacity:     248.2151487
  energy:             88.6117912

- temperature:       130.0000000
  free_energy:        64.4727505
  entropy:           205.4744719
  heat_capacity:     266.0175511
  energy:             91.1844319

- temperature:       140.0000000
  free_energy:        62.3161815
  entropy:           225.7869575
  heat_capacity:     282.0857000
  energy:             93.9263555

- temperature:       150.0000000
  free_energy:        59.9581780
  entropy:           245.7502298
  heat_capacity:     296.5247042
  energy:             96.8207125

- temperature:       160.0000000
  free_energy:        57.4025295
  entropy:           265.3083167
  heat_capacity:     309.4671893
  energy:             99.8518602

- temperature:       170.0000000
  free_energy:        54.6534885
  entropy:           284.4238463
  heat_capacity:     321.0554383
  energy:            103.0055423

- temperature:       180.0000000
  free_energy:        51.7156051
  entropy:           303.0740021
  heat_capacity:     331.4303655
  energy:            106.2689255

- temperature:       190.0000000
  free_energy:        48.5935995
  entropy:           321.2471117
  heat_capacity:     340.7252460
  energy:            109.6305507

- temperature:       200.0000000
  free_energy:        45.2922647
  entropy:           338.9398759
  heat_capacity:     349.0625669
  energy:            113.0802399

- temperature:       210.0000000
  free_energy:        41.8163940
  entropy:           356.1551706
  heat_capacity:     356.5528279
  energy:            116.6089799

- temperature:       220.0000000
  free_energy:        38.1707287
  entropy:           372.9003349
  heat_capacity:     363.2945019
  energy:            120.2088024

- temperature:       230.0000000
  free_energy:        34.3599197
  entropy:           389.1858532
  heat_capacity:     369.3746408
  energy:            123.8726660

- temperature:       240.0000000
  free_energy:        30.3885019
  entropy:           405.0243520
  heat_capacity:     374.8698030
  energy:            127.5943463

- temperature:       250.0000000
  free_energy:        26.2608761
  entropy:           420.4298425
  heat_capacity:     379.8471068
  energy:            131.3683368

- temperature:       260.0000000
  free_energy:        21.9812990
  entropy:           435.4171535
  heat_capacity:     384.3652942
  energy:            135.1897589

- temperature:       270.0000000
  free_energy:        17.5538763
  entropy:           450.0015110
  heat_capacity:     388.4757435
  energy:            139.0542842

- temperature:       280.0000000
  free_energy:        12.9825609
  entropy:           464.1982292
  heat_capacity:     392.2233975
  energy:            142.9580651

- temperature:       290.0000000
  free_energy:         8.2711532
  entropy:           478.0224875
  heat_capacity:     395.6475972
  energy:            146.8976745

- temperature:       300.0000000
  free_energy:         3.4233030
  entropy:           491.4891707
  heat_capacity:     398.7828181
  energy:            150.8700542

- temperature:       310.0000000
  free_energy:        -1.5574866
  entropy:           504.6127598
  heat_capacity:     401.6593146
  energy:            154.8724689

- temperature:       320.0000000
  free_energy:        -6.6678553
  entropy:           517.4072574
  heat_capacity:     404.3036804
  energy:            158.9024671

- temperature:       330.0000000
  free_energy:       -11.9045798
  entropy:           529.8861421
  heat_capacity:     406.7393332
  energy:            162.9578471

- temperature:       340.0000000
  free_energy:       -17.2645692
  entropy:           542.0623424
  heat_capacity:     408.9869334
  energy:            167.0366272

- temperature:       350.0000000
  free_energy:       -22.7448590
  entropy:           553.9482258
  heat_capacity:     411.0647447
  energy:            171.1370200

- temperature:       360.0000000
  free_energy:       -28.3426054
  entropy:           565.5555991
  heat_capacity:     412.9889445
  energy:            175.2574102

- temperature:       370.0000000
  free_energy:       -34.0550802
  entropy:           576.8957165
  heat_capacity:     414.7738918
  energy:            179.3963349

- temperature:       380.0000000
  free_energy:       -39.8796647
  entropy:           587.9792929
  heat_capacity:     416.4323572
  energy:            183.5524666

- temperature:       390.0000000
  free_energy:       -45.8138449
  entropy:           598.8165217
  heat_capacity:     417.9757221
  energy:            187.7245985

- temperature:       400.0000000
  free_energy:       -51.8552063
  entropy:           609.4170943
  heat_capacity:     419.4141500
  energy:            191.9116314

- temperature:       410.0000000
  free_energy:       -58.0014287
  entropy:           619.7902217
  heat_capacity:     420.7567350
  energy:            196.1125622

- temperature:       420.0000000
  free_energy:       -64.2502818
  entropy:           629.9446565
  heat_capacity:     422.0116299
  energy:            200.3264739

- temperature:       430.0000000
  free_energy:       -70.5996207
  entropy:           639.8887154
  heat_capacity:     423.1861583
  energy:            204.5525270

- temperature:       440.0000000
  free_energy:       -77.0473813
  entropy:           649.6303011
  heat_capacity:     424.2869107
  energy:            208.7899512

- temperature:       450.0000000
  free_energy:       -83.5915768
  entropy:           659.1769243
  heat_capacity:     425.3198290
  energy:            213.0380391

- temperature:       460.0000000
  free_energy:       -90.2302937
  entropy:           668.5357247
  heat_capacity:     426.2902802
  energy:            217.2961396

- temperature:       470.0000000
  free_energy:       -96.9616879
  entropy:           677.7134908
  heat_capacity:     427.2031201
  energy:            221.5636527

- temperature:       480.0000000
  free_energy:      -103.7839817
  entropy:           686.7166799
  heat_capacity:     428.0627497
  energy:            225.8400247

- temperature:       490.0000000
  free_energy:      -110.6954601
  entropy:           695.5514364
  heat_capacity:     428.8731645
  energy:            230.1247437

- temperature:       500.0000000
  free_energy:      -117.6944685
  entropy:           704.2236091
  heat_capacity:     429.6379976
  energy:            234.4173361

- temperature:       510.0000000
  free_energy:      -124.7794089
  entropy:           712.7387681
  heat_capacity:     430.3605581
  energy:            238.7173628

- temperature:       520.0000000
  free_energy:      -131.9487382
  entropy:           721.1022204
  heat_capacity:     431.0438642
  energy:            243.0244164

- temperature:       530.0000000
  free_energy:      -139.2009646
  entropy:           729.3190245
  heat_capacity:     431.6906730
  energy:            247.3381184

- temperature:       540.0000000
  free_energy:      -146.5346459
  entropy:           737.3940048
  heat_capacity:     432.3035071
  energy:            251.6581167

- temperature:       550.0000000
  free_energy:      -153.9483873
  entropy:           745.3317642
  heat_capacity:     432.8846773
  energy:            255.9840831

- temperature:       560.0000000
  free_energy:      -161.4408385
  entropy:           753.1366968
  heat_capacity:     433.4363039
  energy:            260.3157117

- temperature:       570.0000000
  free_energy:      -169.0106925
  entropy:           760.8129993
  heat_capacity:     433.9603343
  energy:            264.6527172

- temperature:       580.0000000
  free_energy:      -176.6566831
  entropy:           768.3646819
  heat_capacity:     434.4585601
  energy:            268.9948324

- temperature:       590.0000000
  free_energy:      -184.3775835
  entropy:           775.7955786
  heat_capacity:     434.9326313
  energy:            273.3418079

- temperature:       600.0000000
  free_energy:      -192.1722043
  entropy:           783.1093565
  heat_capacity:     435.3840692
  energy:            277.6934096

- temperature:       610.0000000
  free_energy:      -200.0393919
  entropy:           790.3095253
  heat_capacity:     435.8142788
  energy:            282.0494185

- temperature:       620.0000000
  free_energy:      -207.9780273
  entropy:           797.3994453
  heat_capacity:     436.2245584
  energy:            286.4096288

- temperature:       630.0000000
  free_energy:      -215.9870241
  entropy:           804.3823355
  heat_capacity:     436.6161096
  energy:            290.7738473

- temperature:       640.0000000
  free_energy:      -224.0653276
  entropy:           811.2612810
  heat_capacity:     436.9900457
  energy:            295.1418923

- temperature:       650.0000000
  free_energy:      -232.2119131
  entropy:           818.0392400
  heat_capacity:     437.3473990
  energy:            299.5135929

- temperature:       660.0000000
  free_energy:      -240.4257852
  entropy:           824.7190506
  heat_capacity:     437.6891279
  energy:            303.8887882

- temperature:       670.0000000
  free_energy:      -248.7059761
  entropy:           831.3034364
  heat_capacity:     438.0161234
  energy:            308.2673264

- temperature:       680.0000000
  free_energy:      -257.0515446
  entropy:           837.7950131
  heat_capacity:     438.3292140
  energy:            312.6490643

- temperature:       690.0000000
  free_energy:      -265.4615753
  entropy:           844.1962930
  heat_capacity:     438.6291715
  energy:            317.0338669

- temperature:       700.0000000
  free_energy:      -273.9351775
  entropy:           850.5096912
  heat_capacity:     438.9167150
  energy:            321.4216064

- temperature:       710.0000000
  free_energy:      -282.4714840
  entropy:           856.7375296
  heat_capacity:     439.1925156
  energy:            325.8121620

- temperature:       720.0000000
  free_energy:      -291.0696504
  entropy:           862.8820416
  heat_capacity:     439.4571999
  energy:            330.2054196

- temperature:       730.0000000
  free_energy:      -299.7288542
  entropy:           868.9453769
  heat_capacity:     439.7113535
  energy:            334.6012709

- temperature:       740.0000000
  free_energy:      -308.4482942
  entropy:           874.9296049
  heat_capacity:     439.9555244
  energy:            338.9996134

- temperature:       750.0000000
  free_energy:      -317.2271893
  entropy:           880.8367188
  heat_capacity:     440.1902253
  energy:            343.4003498

- temperature:       760.0000000
  free_energy:      -326.0647780
  entropy:           886.6686394
  heat_capacity:     440.4159367
  energy:            347.8033880

- temperature:       770.0000000
  free_energy:      -334.9603176
  entropy:           892.4272178
  heat_capacity:     440.6331095
  energy:            352.2086401

- temperature:       780.0000000
  free_energy:      -343.9130838
  entropy:           898.1142396
  heat_capacity:     440.8421664
  energy:            356.6160231

- temperature:       790.0000000
  free_energy:      -352.9223696
  entropy:           903.7314270
  heat_capacity:     441.0435048
  energy:            361.0254577

- temperature:       800.0000000
  free_energy:      -361.9874851
  entropy:           909.2804423
  heat_capacity:     441.2374978
  energy:            365.4368687

- temperature:       810.0000000
  free_energy:      -371.1077566
  entropy:           914.7628901
  heat_capacity:     441.4244967
  energy:            369.8501844

- temperature:       820.0000000
  free_energy:      -380.2825262
  entropy:           920.1803203
  heat_capacity:     441.6048319
  energy:            374.2653364

- temperature:       830.0000000
  free_energy:      -389.5111513
  entropy:           925.5342302
  heat_capacity:     441.7788149
  energy:            378.6822598

- temperature:       840.0000000
  free_energy:      -398.7930039
  entropy:           930.8260672
  heat_capacity:     441.9467391
  energy:            383.1008925

- temperature:       850.0000000
  free_energy:      -408.1274704
  entropy:           936.0572302
  heat_capacity:     442.1088811
  energy:            387.5211753

- temperature:       860.0000000
  free_energy:      -417.5139508
  entropy:           941.2290727
  heat_capacity:     442.2655023
  energy:            391.9430518

- temperature:       870.0000000
  free_energy:      -426.9518584
  entropy:           946.3429037
  heat_capacity:     442.4168494
  energy:            396.3664678

- temperature:       880.0000000
  free_energy:      -436.4406197
  entropy:           951.3999905
  heat_capacity:     442.5631555
  energy:            400.7913719

- temperature:       890.0000000
  free_energy:      -445.9796732
  entropy:           956.4015596
  heat_capacity:     442.7046410
  energy:            405.2177149

- temperature:       900.0000000
  free_energy:      -455.5684698
  entropy:           961.3487991
  heat_capacity:     442.8415145
  energy:            409.6454494

- temperature:       910.0000000
  free_energy:      -465.2064719
  entropy:           966.2428597
  heat_capacity:     442.9739736
  energy:            414.0745304

- temperature:       920.0000000
  free_energy:      -474.8931534
  entropy:           971.0848568
  heat_capacity:     443.1022052
  energy:            418.5049148

- temperature:       930.0000000
  free_energy:      -484.6279991
  entropy:           975.8758711
  heat_capacity:     443.2263867
  energy:            422.9365610

- temperature:       940.0000000
  free_energy:      -494.4105044
  entropy:           980.6169510
  heat_capacity:     443.3466861
  energy:            427.3694296

- temperature:       950.0000000
  free_energy:      -504.2401751
  entropy:           985.3091131
  heat_capacity:     443.4632631
  energy:            431.8034824

- temperature:       960.0000000
  free_energy:      -514.1165269
  entropy:           989.9533436
  heat_capacity:     443.5762690
  energy:            436.2386829

- temperature:       970.0000000
  free_energy:      -524.0390854
  entropy:           994.5505997
  heat_capacity:     443.6858477
  energy:            440.6749963

- temperature:       980.0000000
  free_energy:      -534.0073854
  entropy:           999.1018105
  heat_capacity:     443.7921360
  energy:            445.1123889

- temperature:       990.0000000
  free_energy:      -544.0209711
  entropy:          1003.6078784
  heat_capacity:     443.8952638
  energy:            449.5508285

- temperature:      1000.0000000
  free_energy:      -554.0793954
  entropy:          1008.0696795
  heat_capacity:     443.9953547
  energy:            453.9902841
