phonopy:
  version: "2.37.1"
  frequency_unit_conversion_factor: 15.633302
  symmetry_tolerance: 1.00000e-05

space_group:
  type: "I4/mmm"
  number: 139
  Hall_symbol: "-I 4 2"

primitive_matrix:
- [ -1.000000000000000,  0.000000000000000,  0.000000000000000 ]
- [ -1.000000000000000,  0.000000000000000,  1.000000000000000 ]
- [ -1.000000000000000,  1.000000000000000,  0.000000000000000 ]

supercell_matrix:
- [   2,   0,   0 ]
- [   0,   2,   0 ]
- [   0,   0,   2 ]

primitive_cell:
  lattice:
  - [    -3.870217713581863,    -2.731356091320767,    -3.343060031431820 ] # a
  - [    -3.870216694223766,    -2.731361207744831,     3.343060031431820 ] # b
  - [     1.942594433029065,     5.462717299065599,     0.000000000000000 ] # c
  points:
  - symbol: Ga # 1
    coordinates: [  0.999999983243362,  0.999999990796124,  0.000000007098990 ]
    mass: 69.723000
  - symbol: Sn # 2
    coordinates: [  0.250000028638197,  0.750000025562127,  0.500000035873366 ]
    mass: 118.710000
  - symbol: Sn # 3
    coordinates: [  0.749999990788487,  0.250000012041697,  0.499999975884357 ]
    mass: 118.710000
  - symbol: Sn # 4
    coordinates: [  0.499999997122825,  0.499999971437089,  0.999999980731605 ]
    mass: 118.710000
  reciprocal_lattice: # without 2pi
  - [    -0.172478027049813,     0.061334833348252,    -0.149563498855241 ] # a*
  - [    -0.172478027049813,     0.061334833348252,     0.149563645317430 ] # b*
  - [    -0.172478027049813,     0.244393912786804,     0.000000213313515 ] # c*

unit_cell:
  lattice:
  - [     5.797839974776565,     0.000000000000000,     0.000000000000000 ] # a
  - [     1.942594433029065,     5.462717299065599,     0.000000000000000 ] # b
  - [    -3.870216694223767,    -2.731361207744831,     3.343060031431820 ] # c
  points:
  - symbol: Ga # 1
    coordinates: [  0.000000016756638,  0.000000023855628,  0.000000007552762 ]
    mass: 69.723000
    reduced_to: 1
  - symbol: Sn # 2
    coordinates: [  0.749999971361803,  0.250000007235169,  0.499999996923930 ]
    mass: 118.710000
    reduced_to: 2
  - symbol: Sn # 3
    coordinates: [  0.250000009211513,  0.749999985095870,  0.500000021253211 ]
    mass: 118.710000
    reduced_to: 3
  - symbol: Sn # 4
    coordinates: [  0.500000002877175,  0.499999983608781,  0.999999974314264 ]
    mass: 118.710000
    reduced_to: 4

supercell:
  lattice:
  - [    11.595679949553130,     0.000000000000000,     0.000000000000000 ] # a
  - [     3.885188866058130,    10.925434598131197,     0.000000000000000 ] # b
  - [    -7.740433388447535,    -5.462722415489663,     6.686120062863640 ] # c
  points:
  - symbol: Ga # 1
    coordinates: [  0.000000008378319,  0.000000011927814,  0.000000003776381 ]
    mass: 69.723000
    reduced_to: 1
  - symbol: Ga # 2
    coordinates: [  0.500000008378319,  0.000000011927814,  0.000000003776381 ]
    mass: 69.723000
    reduced_to: 1
  - symbol: Ga # 3
    coordinates: [  0.000000008378319,  0.500000011927814,  0.000000003776381 ]
    mass: 69.723000
    reduced_to: 1
  - symbol: Ga # 4
    coordinates: [  0.500000008378319,  0.500000011927814,  0.000000003776381 ]
    mass: 69.723000
    reduced_to: 1
  - symbol: Ga # 5
    coordinates: [  0.000000008378319,  0.000000011927814,  0.500000003776381 ]
    mass: 69.723000
    reduced_to: 1
  - symbol: Ga # 6
    coordinates: [  0.500000008378319,  0.000000011927814,  0.500000003776381 ]
    mass: 69.723000
    reduced_to: 1
  - symbol: Ga # 7
    coordinates: [  0.000000008378319,  0.500000011927814,  0.500000003776381 ]
    mass: 69.723000
    reduced_to: 1
  - symbol: Ga # 8
    coordinates: [  0.500000008378319,  0.500000011927814,  0.500000003776381 ]
    mass: 69.723000
    reduced_to: 1
  - symbol: Sn # 9
    coordinates: [  0.374999985680902,  0.125000003617585,  0.249999998461965 ]
    mass: 118.710000
    reduced_to: 9
  - symbol: Sn # 10
    coordinates: [  0.874999985680902,  0.125000003617585,  0.249999998461965 ]
    mass: 118.710000
    reduced_to: 9
  - symbol: Sn # 11
    coordinates: [  0.374999985680902,  0.625000003617585,  0.249999998461965 ]
    mass: 118.710000
    reduced_to: 9
  - symbol: Sn # 12
    coordinates: [  0.874999985680902,  0.625000003617585,  0.249999998461965 ]
    mass: 118.710000
    reduced_to: 9
  - symbol: Sn # 13
    coordinates: [  0.374999985680902,  0.125000003617585,  0.749999998461965 ]
    mass: 118.710000
    reduced_to: 9
  - symbol: Sn # 14
    coordinates: [  0.874999985680902,  0.125000003617585,  0.749999998461965 ]
    mass: 118.710000
    reduced_to: 9
  - symbol: Sn # 15
    coordinates: [  0.374999985680902,  0.625000003617585,  0.749999998461965 ]
    mass: 118.710000
    reduced_to: 9
  - symbol: Sn # 16
    coordinates: [  0.874999985680902,  0.625000003617585,  0.749999998461965 ]
    mass: 118.710000
    reduced_to: 9
  - symbol: Sn # 17
    coordinates: [  0.125000004605757,  0.374999992547935,  0.250000010626605 ]
    mass: 118.710000
    reduced_to: 17
  - symbol: Sn # 18
    coordinates: [  0.625000004605757,  0.374999992547935,  0.250000010626605 ]
    mass: 118.710000
    reduced_to: 17
  - symbol: Sn # 19
    coordinates: [  0.125000004605757,  0.874999992547935,  0.250000010626605 ]
    mass: 118.710000
    reduced_to: 17
  - symbol: Sn # 20
    coordinates: [  0.625000004605757,  0.874999992547935,  0.250000010626605 ]
    mass: 118.710000
    reduced_to: 17
  - symbol: Sn # 21
    coordinates: [  0.125000004605757,  0.374999992547935,  0.750000010626605 ]
    mass: 118.710000
    reduced_to: 17
  - symbol: Sn # 22
    coordinates: [  0.625000004605757,  0.374999992547935,  0.750000010626605 ]
    mass: 118.710000
    reduced_to: 17
  - symbol: Sn # 23
    coordinates: [  0.125000004605757,  0.874999992547935,  0.750000010626605 ]
    mass: 118.710000
    reduced_to: 17
  - symbol: Sn # 24
    coordinates: [  0.625000004605757,  0.874999992547935,  0.750000010626605 ]
    mass: 118.710000
    reduced_to: 17
  - symbol: Sn # 25
    coordinates: [  0.250000001438588,  0.249999991804390,  0.499999987157132 ]
    mass: 118.710000
    reduced_to: 25
  - symbol: Sn # 26
    coordinates: [  0.750000001438588,  0.249999991804390,  0.499999987157132 ]
    mass: 118.710000
    reduced_to: 25
  - symbol: Sn # 27
    coordinates: [  0.250000001438588,  0.749999991804390,  0.499999987157132 ]
    mass: 118.710000
    reduced_to: 25
  - symbol: Sn # 28
    coordinates: [  0.750000001438588,  0.749999991804390,  0.499999987157132 ]
    mass: 118.710000
    reduced_to: 25
  - symbol: Sn # 29
    coordinates: [  0.250000001438588,  0.249999991804390,  0.999999987157132 ]
    mass: 118.710000
    reduced_to: 25
  - symbol: Sn # 30
    coordinates: [  0.750000001438588,  0.249999991804390,  0.999999987157132 ]
    mass: 118.710000
    reduced_to: 25
  - symbol: Sn # 31
    coordinates: [  0.250000001438588,  0.749999991804390,  0.999999987157132 ]
    mass: 118.710000
    reduced_to: 25
  - symbol: Sn # 32
    coordinates: [  0.750000001438588,  0.749999991804390,  0.999999987157132 ]
    mass: 118.710000
    reduced_to: 25

displacements:
- atom:    1
  displacement:
    [   0.0100000000000000,  0.0000000000000000,  0.0000000000000000 ]
  forces:
  - [  -0.0114677213132381, -0.0000428149942309, -0.0000013090334505 ]
  - [   0.0004015974700451,  0.0000606048852205,  0.0000002166634658 ]
  - [  -0.0000730054453015,  0.0002323985099792, -0.0000001564549166 ]
  - [   0.0004038824699819, -0.0010823877528310, -0.0000019324411369 ]
  - [   0.0002159576397389,  0.0000753094791435, -0.0002058483660221 ]
  - [  -0.0002578949206509,  0.0004162505501881, -0.0007362309843302 ]
  - [  -0.0002569626667537,  0.0004184705321677,  0.0007336335256696 ]
  - [   0.0002164161414839,  0.0000753326385166,  0.0002066008746624 ]
  - [   0.0029060086235404,  0.0003179833292961,  0.0019731041975319 ]
  - [   0.0027751517482102,  0.0003105308860540, -0.0018691938603297 ]
  - [   0.0001767156645656,  0.0001275930553675, -0.0002651760005392 ]
  - [   0.0001723300665617,  0.0001166705042124,  0.0002878144732676 ]
  - [  -0.0002000303938985,  0.0001907281111926,  0.0000085765495896 ]
  - [  -0.0001346040517092,  0.0011079201940447, -0.0004354715347290 ]
  - [  -0.0002246750518680,  0.0002044315915555, -0.0000070212408900 ]
  - [  -0.0001209843903780,  0.0010957517661154,  0.0004298556596041 ]
  - [  -0.0001369584351778,  0.0011073963250965,  0.0004347600042820 ]
  - [  -0.0001998237858061,  0.0001901481591631, -0.0000097993761301 ]
  - [  -0.0001222435384989,  0.0010954770259559, -0.0004294220707379 ]
  - [  -0.0002273945137858,  0.0002068777102977,  0.0000083274917415 ]
  - [   0.0001752572134137,  0.0001260982826352,  0.0002675848081708 ]
  - [   0.0001709763891995,  0.0001143636181951, -0.0002869181334972 ]
  - [   0.0029060286469758,  0.0003181761130691, -0.0019729230552912 ]
  - [   0.0027770288288593,  0.0003085210919380,  0.0018702613888308 ]
  - [  -0.0007972354069352, -0.0003429981879890, -0.0000020666047931 ]
  - [   0.0008278451859951,  0.0003989646211267,  0.0000081537291408 ]
  - [   0.0008240202441812,  0.0004021367058158, -0.0000113509595394 ]
  - [  -0.0007972740568221, -0.0003394782543182,  0.0000014770776033 ]
  - [  -0.0007798261940479, -0.0010876485612243, -0.0000015255063772 ]
  - [   0.0007631070911884, -0.0025234145577997,  0.0000017266720533 ]
  - [   0.0007766271010041, -0.0026042016688734,  0.0000027874484658 ]
  - [  -0.0006923442706466, -0.0009952036198229,  0.0000014575198293 ]
- atom:    9
  displacement:
    [   0.0100000000000000,  0.0000000000000000,  0.0000000000000000 ]
  forces:
  - [   0.0027772448956966,  0.0000451372470707,  0.0020834803581238 ]
  - [   0.0029033794999123,  0.0000433772802353, -0.0021955827251077 ]
  - [   0.0001724557951093,  0.0000586956739426, -0.0003325795405544 ]
  - [   0.0001770509406924,  0.0000623494852334,  0.0003210000286344 ]
  - [  -0.0002221718896180,  0.0002641093451530,  0.0000569866970181 ]
  - [  -0.0001234762021340,  0.0013434946304187, -0.0006401799619198 ]
  - [  -0.0001996087812586,  0.0002547696931288, -0.0000602565705776 ]
  - [  -0.0001275594986510,  0.0013946727849543,  0.0006674714386463 ]
  - [  -0.0119327548891306,  0.0007857754826546, -0.0000164150860655 ]
  - [  -0.0009229071438313,  0.0000412575900555,  0.0000030905237054 ]
  - [  -0.0001713475212455, -0.0002267919480801,  0.0000061908958742 ]
  - [  -0.0000478094443679, -0.0003737490624189,  0.0000033624696698 ]
  - [  -0.0002683745697141, -0.0004837010055780,  0.0003243582323194 ]
  - [   0.0002427389845252,  0.0010784445330501, -0.0014097718521953 ]
  - [   0.0002386113628745,  0.0010608290322125,  0.0013951100409031 ]
  - [  -0.0002730255946517, -0.0004854991566390, -0.0003284532576799 ]
  - [   0.0010212650522590, -0.0038262023590505,  0.0002615787088871 ]
  - [  -0.0005820186343044, -0.0007404452189803, -0.0000067241489887 ]
  - [  -0.0004313588142395, -0.0006264934781939,  0.0000128015735754 ]
  - [   0.0010497113689780, -0.0039558298885822, -0.0002675675204955 ]
  - [   0.0002587391063571,  0.0000578360632062, -0.0000057453289628 ]
  - [  -0.0017095487564802, -0.0003283321857452, -0.0000098031014204 ]
  - [  -0.0010974016040564, -0.0005429685115814, -0.0000182967633009 ]
  - [   0.0008114501833916,  0.0003884807229042, -0.0000071613758337 ]
  - [   0.0047384216450155,  0.0002307824324816, -0.0034175300970674 ]
  - [   0.0049579413607717,  0.0002453112974763,  0.0035877292975783 ]
  - [   0.0001540980301797,  0.0000838506966829,  0.0004664100706577 ]
  - [   0.0001561325043440,  0.0000966272782534, -0.0004563508555293 ]
  - [  -0.0003499528393149,  0.0017824610695243, -0.0007472159340978 ]
  - [  -0.0004156422801316,  0.0002618120051920,  0.0000216541811824 ]
  - [  -0.0003465050831437,  0.0017349170520902,  0.0007261531427503 ]
  - [  -0.0004378017038107,  0.0002750304993242, -0.0000177184119821 ]
- atom:   25
  displacement:
    [   0.0100000000000000,  0.0000000000000000,  0.0000000000000000 ]
  forces:
  - [  -0.0007971962913871, -0.0003440736327320, -0.0000284795514744 ]
  - [   0.0008246283978224,  0.0003997310996056, -0.0000140506526805 ]
  - [   0.0008251694962382,  0.0004011243581772,  0.0000140257980092 ]
  - [  -0.0007972032763064, -0.0003439998254180,  0.0000228685912589 ]
  - [  -0.0006981980404817, -0.0010084719397128, -0.0000000819563866 ]
  - [   0.0007903547375463, -0.0026166159659624, -0.0000012274831533 ]
  - [   0.0007501297513954, -0.0025140009820461, -0.0000010356307030 ]
  - [  -0.0007735489634797, -0.0010727569460869,  0.0000007599592209 ]
  - [   0.0049420096911490, -0.0000915620476007, -0.0038549765013158 ]
  - [   0.0047507807612419, -0.0000865692272782,  0.0036884252913296 ]
  - [   0.0001563508994877,  0.0000617830082774,  0.0004840515903197 ]
  - [   0.0001549795269966,  0.0000589527189732, -0.0004910729476251 ]
  - [  -0.0003456883132458,  0.0020741450134665, -0.0009970068931580 ]
  - [  -0.0004382440820336,  0.0003021692391485,  0.0000401185825467 ]
  - [  -0.0003520380705595,  0.0020989098120481,  0.0010075690224767 ]
  - [  -0.0004181154072285,  0.0002916788216680, -0.0000444203615189 ]
  - [  -0.0003559291362762,  0.0021012425422668, -0.0010078977793455 ]
  - [  -0.0004183115670457,  0.0002904886496253,  0.0000426396727562 ]
  - [  -0.0003453679382801,  0.0020732155535370,  0.0009981333278120 ]
  - [  -0.0004389183595777,  0.0003015873953700, -0.0000388682128687 ]
  - [   0.0047509227879345, -0.0000885566696525, -0.0036882758140564 ]
  - [   0.0049393279477954, -0.0000939359888434,  0.0038535352796316 ]
  - [   0.0001541827805340,  0.0000595571473241,  0.0004926864057779 ]
  - [   0.0001594601199031,  0.0000594435259700, -0.0004800893657375 ]
  - [  -0.0151160787791014, -0.0023150525521487,  0.0000008074566722 ]
  - [  -0.0016755396500230,  0.0001477692276239, -0.0000011334195733 ]
  - [  -0.0001154653728008, -0.0004058340564370, -0.0000026673078537 ]
  - [   0.0000995197333395, -0.0006942646577954,  0.0000009294599295 ]
  - [  -0.0004621301777661, -0.0007443074136972,  0.0006772177293897 ]
  - [   0.0003583957441151,  0.0012187543325126, -0.0010245535522699 ]
  - [   0.0003557675518095,  0.0012200011406094,  0.0010286942124367 ]
  - [  -0.0004640500992537, -0.0007405499927700, -0.0006766058504581 ]

force_constants:
  format: "full"
  shape: [ 32, 32 ]
  elements:
  - # (1, 1)
    - [     1.146837886713587,     0.004241798431103,     0.000000006919538 ]
    - [     0.004241798431103,     1.143821009062242,     0.000000002894258 ]
    - [     0.000000006919538,     0.000000002894258,     1.140827408718036 ]
  - # (1, 2)
    - [    -0.040126659441149,    -0.006298235379397,     0.000000004713649 ]
    - [    -0.006298246132116,     0.017763852950134,     0.000000016172588 ]
    - [     0.000000001471324,     0.000000029838715,    -0.010824044806256 ]
  - # (1, 3)
    - [     0.007288424789082,    -0.023159495606793,    -0.000000001723127 ]
    - [    -0.023159507938243,    -0.029651213566305,    -0.000000005668898 ]
    - [    -0.000000012800329,     0.000000017461847,    -0.010824030279830 ]
  - # (1, 4)
    - [    -0.040322512197838,     0.108199094878606,    -0.000000019033270 ]
    - [     0.108199051295409,    -0.117275748301390,    -0.000000015421614 ]
    - [     0.000000037180729,     0.000000024477668,    -0.193635938013771 ]
  - # (1, 5)
    - [    -0.021497672480499,    -0.007532803119816,     0.020557887962330 ]
    - [    -0.007532794659083,    -0.016140229723998,     0.014508475889782 ]
    - [     0.020557900367004,     0.014508445289764,     0.004451050245922 ]
  - # (1, 6)
    - [     0.025808618456103,    -0.041775745053758,     0.073493175696640 ]
    - [    -0.041775742632179,     0.055520332019192,    -0.104136709613545 ]
    - [     0.073493180129623,    -0.104136694815309,     0.085002864632037 ]
  - # (1, 7)
    - [     0.025808642927240,    -0.041775749446692,    -0.073493257791788 ]
    - [    -0.041775755509056,     0.055520307920749,     0.104136753957713 ]
    - [    -0.073493249839539,     0.104136749793692,     0.085003228205264 ]
  - # (1, 8)
    - [    -0.021497677759096,    -0.007532788169961,    -0.020557896799051 ]
    - [    -0.007532795041449,    -0.016140206667139,    -0.014508468344591 ]
    - [    -0.020557885523004,    -0.014508482777796,     0.004451023010218 ]
  - # (1, 9)
    - [    -0.284056037417941,    -0.031460726258275,    -0.192017176026769 ]
    - [    -0.004493392436292,     0.063015032287937,     0.022345712651870 ]
    - [    -0.214050106105615,     0.006796238555157,    -0.035438490555261 ]
  - # (1, 10)
    - [    -0.284056100404768,    -0.031460899983007,     0.192017235931902 ]
    - [    -0.004493394646412,     0.063015053320319,    -0.022345682408323 ]
    - [     0.214050236622507,    -0.006796101581668,    -0.035438634584155 ]
  - # (1, 11)
    - [    -0.017426924780895,    -0.012204814055808,     0.027652822138293 ]
    - [    -0.006065507944425,     0.032576483833970,    -0.008960839612860 ]
    - [     0.032668772211589,    -0.005420883741039,     0.024558828279473 ]
  - # (1, 12)
    - [    -0.017426944085559,    -0.012204776369590,    -0.027652839779033 ]
    - [    -0.006065498895869,     0.032576472729130,     0.008960851740435 ]
    - [    -0.032668769768061,     0.005420919549500,     0.024558848366422 ]
  - # (1, 13)
    - [     0.021195305308763,    -0.019799914690262,    -0.000822325583372 ]
    - [    -0.025939261657510,    -0.006045749772131,    -0.029056847470353 ]
    - [    -0.005838291490045,    -0.032596801178547,     0.024558804508445 ]
  - # (1, 14)
    - [     0.012701898173913,    -0.110023458483281,     0.043282195769729 ]
    - [    -0.136990760246334,    -0.233742927829595,     0.188405259213516 ]
    - [     0.065315038492441,     0.203954604898471,    -0.035438279299437 ]
  - # (1, 15)
    - [     0.021195306948150,    -0.019799914300293,     0.000822300468583 ]
    - [    -0.025939245557172,    -0.006045778667413,     0.029056835626215 ]
    - [     0.005838255078916,     0.032596775312476,     0.024558853701229 ]
  - # (1, 16)
    - [     0.012701900275132,    -0.110023413703232,    -0.043282280808447 ]
    - [    -0.136990768027251,    -0.233742708863147,    -0.188405393959561 ]
    - [    -0.065315233899435,    -0.203954873648317,    -0.035438666743262 ]
  - # (1, 17)
    - [     0.012701900275132,    -0.110023413703232,    -0.043282280808447 ]
    - [    -0.136990768027251,    -0.233742708863147,    -0.188405393959561 ]
    - [    -0.065315233899435,    -0.203954873648317,    -0.035438666743262 ]
  - # (1, 18)
    - [     0.021195306948150,    -0.019799914300293,     0.000822300468583 ]
    - [    -0.025939245557172,    -0.006045778667413,     0.029056835626215 ]
    - [     0.005838255078916,     0.032596775312476,     0.024558853701229 ]
  - # (1, 19)
    - [     0.012701898173913,    -0.110023458483281,     0.043282195769729 ]
    - [    -0.136990760246334,    -0.233742927829595,     0.188405259213516 ]
    - [     0.065315038492441,     0.203954604898471,    -0.035438279299437 ]
  - # (1, 20)
    - [     0.021195305308763,    -0.019799914690262,    -0.000822325583372 ]
    - [    -0.025939261657510,    -0.006045749772131,    -0.029056847470353 ]
    - [    -0.005838291490045,    -0.032596801178547,     0.024558804508445 ]
  - # (1, 21)
    - [    -0.017426944085559,    -0.012204776369590,    -0.027652839779033 ]
    - [    -0.006065498895869,     0.032576472729130,     0.008960851740435 ]
    - [    -0.032668769768061,     0.005420919549500,     0.024558848366422 ]
  - # (1, 22)
    - [    -0.017426924780895,    -0.012204814055808,     0.027652822138293 ]
    - [    -0.006065507944425,     0.032576483833970,    -0.008960839612860 ]
    - [     0.032668772211589,    -0.005420883741039,     0.024558828279473 ]
  - # (1, 23)
    - [    -0.284056100404768,    -0.031460899983007,     0.192017235931902 ]
    - [    -0.004493394646412,     0.063015053320319,    -0.022345682408323 ]
    - [     0.214050236622507,    -0.006796101581668,    -0.035438634584155 ]
  - # (1, 24)
    - [    -0.284056037417941,    -0.031460726258275,    -0.192017176026769 ]
    - [    -0.004493392436292,     0.063015032287937,     0.022345712651870 ]
    - [    -0.214050106105615,     0.006796238555157,    -0.035438490555261 ]
  - # (1, 25)
    - [     0.079811928220932,     0.034288414469690,    -0.000000033631261 ]
    - [     0.034288402754739,     0.055425334726446,     0.000000209753812 ]
    - [    -0.000000018527125,     0.000000198425906,    -0.440338064129495 ]
  - # (1, 26)
    - [    -0.082479458234455,    -0.040043363442392,    -0.000000001092075 ]
    - [    -0.040043380693754,    -0.053999890124100,    -0.000000030954343 ]
    - [    -0.000000007252443,    -0.000000047636230,    -0.025739771740969 ]
  - # (1, 27)
    - [    -0.082479458234455,    -0.040043363442392,    -0.000000001092075 ]
    - [    -0.040043380693754,    -0.053999890124100,    -0.000000030954343 ]
    - [    -0.000000007252443,    -0.000000047636230,    -0.025739771740969 ]
  - # (1, 28)
    - [     0.079811928220932,     0.034288414469690,    -0.000000033631261 ]
    - [     0.034288402754739,     0.055425334726446,     0.000000209753812 ]
    - [    -0.000000018527125,     0.000000198425906,    -0.440338064129495 ]
  - # (1, 29)
    - [     0.073660046094172,     0.104107578217540,     0.000000040831797 ]
    - [     0.104107565001321,    -0.000383272343673,     0.000000023515203 ]
    - [     0.000000032873894,     0.000000031293513,    -0.073855904228020 ]
  - # (1, 30)
    - [    -0.076970445601159,     0.256442250332265,     0.000000111808192 ]
    - [     0.256442238441764,    -0.259357101144486,    -0.000000123028456 ]
    - [     0.000000102810704,    -0.000000106330642,     0.031226695569221 ]
  - # (1, 31)
    - [    -0.076970445601159,     0.256442250332265,     0.000000111808192 ]
    - [     0.256442238441764,    -0.259357101144486,    -0.000000123028456 ]
    - [     0.000000102810704,    -0.000000106330642,     0.031226695569221 ]
  - # (1, 32)
    - [     0.073660046094172,     0.104107578217540,     0.000000040831797 ]
    - [     0.104107565001321,    -0.000383272343673,     0.000000023515203 ]
    - [     0.000000032873894,     0.000000031293513,    -0.073855904228020 ]
  - # (2, 1)
    - [    -0.040126659441149,    -0.006298246132116,     0.000000001471324 ]
    - [    -0.006298235379397,     0.017763852950134,     0.000000029838715 ]
    - [     0.000000004713649,     0.000000016172588,    -0.010824044806256 ]
  - # (2, 2)
    - [     1.146837879764181,     0.004241814914011,     0.000000002044408 ]
    - [     0.004241814914011,     1.143821013971491,     0.000000021943949 ]
    - [     0.000000002044408,     0.000000021943949,     1.140827405347951 ]
  - # (2, 3)
    - [    -0.040322490866297,     0.108199077212641,     0.000000034123052 ]
    - [     0.108199075633911,    -0.117275754272526,     0.000000037086080 ]
    - [     0.000000026288174,     0.000000046550699,    -0.193635927167498 ]
  - # (2, 4)
    - [     0.007288403593331,    -0.023159484403025,    -0.000000015698137 ]
    - [    -0.023159496440337,    -0.029651205761002,     0.000000007919753 ]
    - [    -0.000000015230849,    -0.000000017181253,    -0.010824044496182 ]
  - # (2, 5)
    - [     0.025808609895637,    -0.041775747444603,     0.073493173270041 ]
    - [    -0.041775729618483,     0.055520330113790,    -0.104136671607599 ]
    - [     0.073493179704449,    -0.104136694878892,     0.085002859475831 ]
  - # (2, 6)
    - [    -0.021497670869438,    -0.007532794998782,     0.020557882271473 ]
    - [    -0.007532780437152,    -0.016140222909347,     0.014508470599655 ]
    - [     0.020557899159372,     0.014508450736911,     0.004451052032042 ]
  - # (2, 7)
    - [    -0.021497677815364,    -0.007532773184025,    -0.020557877539992 ]
    - [    -0.007532785829851,    -0.016140207582407,    -0.014508470779051 ]
    - [    -0.020557876547966,    -0.014508504681344,     0.004451028087528 ]
  - # (2, 8)
    - [     0.025808607242540,    -0.041775708703824,    -0.073493239586541 ]
    - [    -0.041775704822592,     0.055520245411874,     0.104136751774672 ]
    - [    -0.073493225068171,     0.104136723675338,     0.085003128617404 ]
  - # (2, 9)
    - [    -0.284055978974996,    -0.031460871488617,     0.192017164399977 ]
    - [    -0.004493545940372,     0.063015057010587,    -0.022345607104716 ]
    - [     0.214050147648251,    -0.006796118171740,    -0.035438576425976 ]
  - # (2, 10)
    - [    -0.284056031286663,    -0.031460753238170,    -0.192017192231335 ]
    - [    -0.004493492429300,     0.063015042236098,     0.022345694321230 ]
    - [    -0.214050004319914,     0.006796260076095,    -0.035438402435682 ]
  - # (2, 11)
    - [    -0.017426954362159,    -0.012204786370201,    -0.027652849027217 ]
    - [    -0.006065479895718,     0.032576477282488,     0.008960873020273 ]
    - [    -0.032668805881867,     0.005420914022350,     0.024558835773905 ]
  - # (2, 12)
    - [    -0.017426958895574,    -0.012204792125754,     0.027652831051312 ]
    - [    -0.006065469109957,     0.032576479123584,    -0.008960829646515 ]
    - [     0.032668804487058,    -0.005420872465155,     0.024558797448799 ]
  - # (2, 13)
    - [     0.012701896841451,    -0.110023458050269,     0.043282192495776 ]
    - [    -0.136990755184269,    -0.233742898429516,     0.188405276420301 ]
    - [     0.065315040936770,     0.203954613764686,    -0.035438251413353 ]
  - # (2, 14)
    - [     0.021195299691819,    -0.019799909393084,    -0.000822330426874 ]
    - [    -0.025939239483947,    -0.006045774262960,    -0.029056831961320 ]
    - [    -0.005838295567181,    -0.032596804661198,     0.024558773252276 ]
  - # (2, 15)
    - [     0.012701884325445,    -0.110023466471657,    -0.043282299883677 ]
    - [    -0.136990756756593,    -0.233742735565092,    -0.188405372038185 ]
    - [    -0.065315271951426,    -0.203954957962335,    -0.035438725622138 ]
  - # (2, 16)
    - [     0.021195299846314,    -0.019799917653750,     0.000822298373369 ]
    - [    -0.025939234035414,    -0.006045770721834,     0.029056852936483 ]
    - [     0.005838269027721,     0.032596800119293,     0.024558858144094 ]
  - # (2, 17)
    - [     0.021195299846314,    -0.019799917653750,     0.000822298373369 ]
    - [    -0.025939234035414,    -0.006045770721834,     0.029056852936483 ]
    - [     0.005838269027721,     0.032596800119293,     0.024558858144094 ]
  - # (2, 18)
    - [     0.012701884325445,    -0.110023466471657,    -0.043282299883677 ]
    - [    -0.136990756756593,    -0.233742735565092,    -0.188405372038185 ]
    - [    -0.065315271951426,    -0.203954957962335,    -0.035438725622138 ]
  - # (2, 19)
    - [     0.021195299691819,    -0.019799909393084,    -0.000822330426874 ]
    - [    -0.025939239483947,    -0.006045774262960,    -0.029056831961320 ]
    - [    -0.005838295567181,    -0.032596804661198,     0.024558773252276 ]
  - # (2, 20)
    - [     0.012701896841451,    -0.110023458050269,     0.043282192495776 ]
    - [    -0.136990755184269,    -0.233742898429516,     0.188405276420301 ]
    - [     0.065315040936770,     0.203954613764686,    -0.035438251413353 ]
  - # (2, 21)
    - [    -0.017426958895574,    -0.012204792125754,     0.027652831051312 ]
    - [    -0.006065469109957,     0.032576479123584,    -0.008960829646515 ]
    - [     0.032668804487058,    -0.005420872465155,     0.024558797448799 ]
  - # (2, 22)
    - [    -0.017426954362159,    -0.012204786370201,    -0.027652849027217 ]
    - [    -0.006065479895718,     0.032576477282488,     0.008960873020273 ]
    - [    -0.032668805881867,     0.005420914022350,     0.024558835773905 ]
  - # (2, 23)
    - [    -0.284056031286663,    -0.031460753238170,    -0.192017192231335 ]
    - [    -0.004493492429300,     0.063015042236098,     0.022345694321230 ]
    - [    -0.214050004319914,     0.006796260076095,    -0.035438402435682 ]
  - # (2, 24)
    - [    -0.284055978974996,    -0.031460871488617,     0.192017164399977 ]
    - [    -0.004493545940372,     0.063015057010587,    -0.022345607104716 ]
    - [     0.214050147648251,    -0.006796118171740,    -0.035438576425976 ]
  - # (2, 25)
    - [    -0.082479464348650,    -0.040043355086294,    -0.000000022193023 ]
    - [    -0.040043356068691,    -0.053999871356036,     0.000000031284521 ]
    - [    -0.000000003769508,     0.000000006278568,    -0.025739762600306 ]
  - # (2, 26)
    - [     0.079811912867684,     0.034288406967663,     0.000000082741343 ]
    - [     0.034288419215496,     0.055425337300587,    -0.000000108822724 ]
    - [    -0.000000012193228,     0.000000207484004,    -0.440338062638146 ]
  - # (2, 27)
    - [     0.079811912867684,     0.034288406967663,     0.000000082741343 ]
    - [     0.034288419215496,     0.055425337300587,    -0.000000108822724 ]
    - [    -0.000000012193228,     0.000000207484004,    -0.440338062638146 ]
  - # (2, 28)
    - [    -0.082479464348650,    -0.040043355086294,    -0.000000022193023 ]
    - [    -0.040043356068691,    -0.053999871356036,     0.000000031284521 ]
    - [    -0.000000003769508,     0.000000006278568,    -0.025739762600306 ]
  - # (2, 29)
    - [    -0.076970441333070,     0.256442259321255,     0.000000114581460 ]
    - [     0.256442256879772,    -0.259357095351617,    -0.000000110978558 ]
    - [     0.000000109805978,    -0.000000116974953,     0.031226707302706 ]
  - # (2, 30)
    - [     0.073660034876678,     0.104107574958739,     0.000000029941074 ]
    - [     0.104107573798940,    -0.000383273227293,     0.000000044181124 ]
    - [     0.000000024245814,     0.000000047321387,    -0.073855919331590 ]
  - # (2, 31)
    - [     0.073660034876678,     0.104107574958739,     0.000000029941074 ]
    - [     0.104107573798940,    -0.000383273227293,     0.000000044181124 ]
    - [     0.000000024245814,     0.000000047321387,    -0.073855919331590 ]
  - # (2, 32)
    - [    -0.076970441333070,     0.256442259321255,     0.000000114581460 ]