# Thermal properties / unit cell (natom)

unit:
  temperature:   K
  free_energy:   kJ/mol
  entropy:       J/K/mol
  heat_capacity: J/K/mol

natom: 4    
cutoff_frequency: 0.00000
num_modes: 207360
num_integrated_modes: 178545

zero_point_energy:       3.5256121

thermal_properties:
- temperature:         0.0000000
  free_energy:         3.5256121
  entropy:             0.0000000
  heat_capacity:       0.0000000
  energy:              3.5256121

- temperature:        10.0000000
  free_energy:         3.5038463
  entropy:             6.2495238
  heat_capacity:      11.3623670
  energy:              3.5663415

- temperature:        20.0000000
  free_energy:         3.3747593
  entropy:            20.2861913
  heat_capacity:      31.5096889
  energy:              3.7804831

- temperature:        30.0000000
  free_energy:         3.0913367
  entropy:            36.4613556
  heat_capacity:      48.5153970
  energy:              4.1851773

- temperature:        40.0000000
  free_energy:         2.6474644
  entropy:            52.1157570
  heat_capacity:      60.0288830
  energy:              4.7320947

- temperature:        50.0000000
  free_energy:         2.0537889
  entropy:            66.3638629
  heat_capacity:      67.4042393
  energy:              5.3719821

- temperature:        60.0000000
  free_energy:         1.3252278
  entropy:            79.1066960
  heat_capacity:      72.1944345
  energy:              6.0716296

- temperature:        70.0000000
  free_energy:         0.4761815
  entropy:            90.4926750
  heat_capacity:      75.4102938
  energy:              6.8106687

- temperature:        80.0000000
  free_energy:        -0.4807553
  entropy:           100.7169168
  heat_capacity:      77.6470242
  energy:              7.5765980

- temperature:        90.0000000
  free_energy:        -1.5348902
  entropy:           109.9601805
  heat_capacity:      79.2543478
  energy:              8.3615260

- temperature:       100.0000000
  free_energy:        -2.6772005
  entropy:           118.3749858
  heat_capacity:      80.4430453
  energy:              9.1602981

- temperature:       110.0000000
  free_energy:        -3.9000472
  entropy:           126.0861924
  heat_capacity:      81.3443438
  energy:              9.9694339

- temperature:       120.0000000
  free_energy:        -5.1969193
  entropy:           133.1952554
  heat_capacity:      82.0426461
  energy:             10.7865114

- temperature:       130.0000000
  free_energy:        -6.5622222
  entropy:           139.7847757
  heat_capacity:      82.5939138
  energy:             11.6097987

- temperature:       140.0000000
  free_energy:        -7.9911098
  entropy:           145.9224124
  heat_capacity:      83.0362884
  energy:             12.4380279

- temperature:       150.0000000
  free_energy:        -9.4793514
  entropy:           151.6640164
  heat_capacity:      83.3964184
  energy:             13.2702511

- temperature:       160.0000000
  free_energy:       -11.0232258
  entropy:           157.0560748
  heat_capacity:      83.6933393
  energy:             14.1057461

- temperature:       170.0000000
  free_energy:       -12.6194384
  entropy:           162.1376014
  heat_capacity:      83.9409218
  energy:             14.9439538

- temperature:       180.0000000
  free_energy:       -14.2650533
  entropy:           166.9416000
  heat_capacity:      84.1494548
  energy:             15.7844347

- temperature:       190.0000000
  free_energy:       -15.9574395
  entropy:           171.4962018
  heat_capacity:      84.3266938
  energy:             16.6268388

- temperature:       200.0000000
  free_energy:       -17.6942269
  entropy:           175.8255552
  heat_capacity:      84.4785702
  energy:             17.4708842

- temperature:       210.0000000
  free_energy:       -19.4732697
  entropy:           179.9505274
  heat_capacity:      84.6096804
  energy:             18.3163411

- temperature:       220.0000000
  free_energy:       -21.2926169
  entropy:           183.8892615
  heat_capacity:      84.7236293
  energy:             19.1630207

- temperature:       230.0000000
  free_energy:       -23.1504872
  entropy:           187.6576229
  heat_capacity:      84.8232750
  energy:             20.0107661

- temperature:       240.0000000
  free_energy:       -25.0452481
  entropy:           191.2695594
  heat_capacity:      84.9109068
  energy:             20.8594462

- temperature:       250.0000000
  free_energy:       -26.9753982
  entropy:           194.7373943
  heat_capacity:      84.9883750
  energy:             21.7089504

- temperature:       260.0000000
  free_energy:       -28.9395522
  entropy:           198.0720657
  heat_capacity:      85.0571880
  energy:             22.5591848

- temperature:       270.0000000
  free_energy:       -30.9364283
  entropy:           201.2833247
  heat_capacity:      85.1185852
  energy:             23.4100694

- temperature:       280.0000000
  free_energy:       -32.9648365
  entropy:           204.3798993
  heat_capacity:      85.1735925
  energy:             24.2615353

- temperature:       290.0000000
  free_energy:       -35.0236702
  entropy:           207.3696311
  heat_capacity:      85.2230646
  energy:             25.1135228

- temperature:       300.0000000
  free_energy:       -37.1118967
  entropy:           210.2595906
  heat_capacity:      85.2677184
  energy:             25.9659805

- temperature:       310.0000000
  free_energy:       -39.2285508
  entropy:           213.0561741
  heat_capacity:      85.3081586
  energy:             26.8188632

- temperature:       320.0000000
  free_energy:       -41.3727283
  entropy:           215.7651864
  heat_capacity:      85.3448980
  energy:             27.6721314

- temperature:       330.0000000
  free_energy:       -43.5435803
  entropy:           218.3919108
  heat_capacity:      85.3783741
  energy:             28.5257503

- temperature:       340.0000000
  free_energy:       -45.7403083
  entropy:           220.9411693
  heat_capacity:      85.4089614
  energy:             29.3796892

- temperature:       350.0000000
  free_energy:       -47.9621602
  entropy:           223.4173747
  heat_capacity:      85.4369825
  energy:             30.2339209

- temperature:       360.0000000
  free_energy:       -50.2084259
  entropy:           225.8245753
  heat_capacity:      85.4627162
  energy:             31.0884212

- temperature:       370.0000000
  free_energy:       -52.4784341
  entropy:           228.1664935
  heat_capacity:      85.4864044
  energy:             31.9431685

- temperature:       380.0000000
  free_energy:       -54.7715496
  entropy:           230.4465600
  heat_capacity:      85.5082581
  energy:             32.7981432

- temperature:       390.0000000
  free_energy:       -57.0871698
  entropy:           232.6679433
  heat_capacity:      85.5284617
  energy:             33.6533281

- temperature:       400.0000000
  free_energy:       -59.4247226
  entropy:           234.8335753
  heat_capacity:      85.5471769
  energy:             34.5087075

- temperature:       410.0000000
  free_energy:       -61.7836645
  entropy:           236.9461748
  heat_capacity:      85.5645464
  energy:             35.3642672

- temperature:       420.0000000
  free_energy:       -64.1634778
  entropy:           239.0082670
  heat_capacity:      85.5806958
  energy:             36.2199944

- temperature:       430.0000000
  free_energy:       -66.5636693
  entropy:           241.0222017
  heat_capacity:      85.5957369
  energy:             37.0758774

- temperature:       440.0000000
  free_energy:       -68.9837686
  entropy:           242.9901690
  heat_capacity:      85.6097685
  energy:             37.9319057

- temperature:       450.0000000
  free_energy:       -71.4233263
  entropy:           244.9142134
  heat_capacity:      85.6228790
  energy:             38.7880697

- temperature:       460.0000000
  free_energy:       -73.8819129
  entropy:           246.7962465
  heat_capacity:      85.6351472
  energy:             39.6443605

- temperature:       470.0000000
  free_energy:       -76.3591172
  entropy:           248.6380580
  heat_capacity:      85.6466437
  energy:             40.5007701

- temperature:       480.0000000
  free_energy:       -78.8545456
  entropy:           250.4413262
  heat_capacity:      85.6574318
  energy:             41.3572910

- temperature:       490.0000000
  free_energy:       -81.3678205
  entropy:           252.2076266
  heat_capacity:      85.6675684
  energy:             42.2139165

- temperature:       500.0000000
  free_energy:       -83.8985798
  entropy:           253.9384404
  heat_capacity:      85.6771050
  energy:             43.0706404

- temperature:       510.0000000
  free_energy:       -86.4464757
  entropy:           255.6351617
  heat_capacity:      85.6860879
  energy:             43.9274568

- temperature:       520.0000000
  free_energy:       -89.0111738
  entropy:           257.2991043
  heat_capacity:      85.6945592
  energy:             44.7843604

- temperature:       530.0000000
  free_energy:       -91.5923526
  entropy:           258.9315076
  heat_capacity:      85.7025569
  energy:             45.6413464

- temperature:       540.0000000
  free_energy:       -94.1897027
  entropy:           260.5335423
  heat_capacity:      85.7101158
  energy:             46.4984101

- temperature:       550.0000000
  free_energy:       -96.8029260
  entropy:           262.1063151
  heat_capacity:      85.7172672
  energy:             47.3555474

- temperature:       560.0000000
  free_energy:       -99.4317350
  entropy:           263.6508735
  heat_capacity:      85.7240400
  energy:             48.2127542

- temperature:       570.0000000
  free_energy:      -102.0758527
  entropy:           265.1682099
  heat_capacity:      85.7304604
  energy:             49.0700270

- temperature:       580.0000000
  free_energy:      -104.7350116
  entropy:           266.6592653
  heat_capacity:      85.7365523
  energy:             49.9273623

- temperature:       590.0000000
  free_energy:      -107.4089534
  entropy:           268.1249328
  heat_capacity:      85.7423380
  energy:             50.7847570

- temperature:       600.0000000
  free_energy:      -110.0974285
  entropy:           269.5660609
  heat_capacity:      85.7478374
  energy:             51.6422081

- temperature:       610.0000000
  free_energy:      -112.8001955
  entropy:           270.9834563
  heat_capacity:      85.7530692
  energy:             52.4997129

- temperature:       620.0000000
  free_energy:      -115.5170210
  entropy:           272.3778866
  heat_capacity:      85.7580504
  energy:             53.3572687

- temperature:       630.0000000
  free_energy:      -118.2476791
  entropy:           273.7500829
  heat_capacity:      85.7627968
  energy:             54.2148731

- temperature:       640.0000000
  free_energy:      -120.9919509
  entropy:           275.1007418
  heat_capacity:      85.7673229
  energy:             55.0725239

- temperature:       650.0000000
  free_energy:      -123.7496244
  entropy:           276.4305280
  heat_capacity:      85.7716422
  energy:             55.9302189

- temperature:       660.0000000
  free_energy:      -126.5204940
  entropy:           277.7400759
  heat_capacity:      85.7757670
  energy:             56.7879561

- temperature:       670.0000000
  free_energy:      -129.3043605
  entropy:           279.0299911
  heat_capacity:      85.7797088
  energy:             57.6457336

- temperature:       680.0000000
  free_energy:      -132.1010303
  entropy:           280.3008529
  heat_capacity:      85.7834784
  energy:             58.5035497

- temperature:       690.0000000
  free_energy:      -134.9103158
  entropy:           281.5532152
  heat_capacity:      85.7870855
  energy:             59.3614026

- temperature:       700.0000000
  free_energy:      -137.7320347
  entropy:           282.7876080
  heat_capacity:      85.7905394
  energy:             60.2192909

- temperature:       710.0000000
  free_energy:      -140.5660098
  entropy:           284.0045390
  heat_capacity:      85.7938486
  energy:             61.0772129

- temperature:       720.0000000
  free_energy:      -143.4120689
  entropy:           285.2044949
  heat_capacity:      85.7970211
  energy:             61.9351674

- temperature:       730.0000000
  free_energy:      -146.2700447
  entropy:           286.3879419
  heat_capacity:      85.8000644
  energy:             62.7931529

- temperature:       740.0000000
  free_energy:      -149.1397742
  entropy:           287.5553277
  heat_capacity:      85.8029853
  energy:             63.6511683

- temperature:       750.0000000
  free_energy:      -152.0210991
  entropy:           288.7070818
  heat_capacity:      85.8057903
  energy:             64.5092122

- temperature:       760.0000000
  free_energy:      -154.9138651
  entropy:           289.8436169
  heat_capacity:      85.8084855
  energy:             65.3672837

- temperature:       770.0000000
  free_energy:      -157.8179221
  entropy:           290.9653294
  heat_capacity:      85.8110765
  energy:             66.2253816

- temperature:       780.0000000
  free_energy:      -160.7331236
  entropy:           292.0726006
  heat_capacity:      85.8135686
  energy:             67.0835049

- temperature:       790.0000000
  free_energy:      -163.6593272
  entropy:           293.1657972
  heat_capacity:      85.8159669
  energy:             67.9416527

- temperature:       800.0000000
  free_energy:      -166.5963938
  entropy:           294.2452722
  heat_capacity:      85.8182758
  energy:             68.7998239

- temperature:       810.0000000
  free_energy:      -169.5441880
  entropy:           295.3113653
  heat_capacity:      85.8204999
  energy:             69.6580179

- temperature:       820.0000000
  free_energy:      -172.5025776
  entropy:           296.3644040
  heat_capacity:      85.8226433
  energy:             70.5162337

- temperature:       830.0000000
  free_energy:      -175.4714336
  entropy:           297.4047037
  heat_capacity:      85.8247097
  energy:             71.3744705

- temperature:       840.0000000
  free_energy:      -178.4506302
  entropy:           298.4325688
  heat_capacity:      85.8267028
  energy:             72.2327276

- temperature:       850.0000000
  free_energy:      -181.4400445
  entropy:           299.4482927
  heat_capacity:      85.8286261
  energy:             73.0910043

- temperature:       860.0000000
  free_energy:      -184.4395565
  entropy:           300.4521587
  heat_capacity:      85.8304828
  energy:             73.9492999

- temperature:       870.0000000
  free_energy:      -187.4490491
  entropy:           301.4444400
  heat_capacity:      85.8322759
  energy:             74.8076138

- temperature:       880.0000000
  free_energy:      -190.4684076
  entropy:           302.4254010
  heat_capacity:      85.8340082
  energy:             75.6659452

- temperature:       890.0000000
  free_energy:      -193.4975202
  entropy:           303.3952966
  heat_capacity:      85.8356826
  energy:             76.5242937

- temperature:       900.0000000
  free_energy:      -196.5362775
  entropy:           304.3543735
  heat_capacity:      85.8373015
  energy:             77.3826587

- temperature:       910.0000000
  free_energy:      -199.5845724
  entropy:           305.3028703
  heat_capacity:      85.8388674
  energy:             78.2410396

- temperature:       920.0000000
  free_energy:      -202.6423004
  entropy:           306.2410177
  heat_capacity:      85.8403826
  energy:             79.0994359

- temperature:       930.0000000
  free_energy:      -205.7093590
  entropy:           307.1690388
  heat_capacity:      85.8418492
  energy:             79.9578471

- temperature:       940.0000000
  free_energy:      -208.7856481
  entropy:           308.0871498
  heat_capacity:      85.8432693
  energy:             80.8162727

- temperature:       950.0000000
  free_energy:      -211.8710697
  entropy:           308.9955600
  heat_capacity:      85.8446448
  energy:             81.6747123

- temperature:       960.0000000
  free_energy:      -214.9655277
  entropy:           309.8944720
  heat_capacity:      85.8459776
  energy:             82.5331655

- temperature:       970.0000000
  free_energy:      -218.0689281
  entropy:           310.7840823
  heat_capacity:      85.8472694
  energy:             83.3916317

- temperature:       980.0000000
  free_energy:      -221.1811789
  entropy:           311.6645813
  heat_capacity:      85.8485219
  energy:             84.2501107

- temperature:       990.0000000
  free_energy:      -224.3021900
  entropy:           312.5361536
  heat_capacity:      85.8497367
  energy:             85.1086020

- temperature:      1000.0000000
  free_energy:      -227.4318729
  entropy:           313.3989782
  heat_capacity:      85.8509153
  energy:             85.9671053
