phonopy:
  version: "2.37.1"
  frequency_unit_conversion_factor: 15.633302
  symmetry_tolerance: 1.00000e-05

space_group:
  type: "C2/m"
  number: 12
  Hall_symbol: "-C 2y"

primitive_matrix:
- [ -1.000000000000000,  0.000000000000000, -0.000000000000000 ]
- [  0.000000000000000, -1.000000000000000, -0.000000000000000 ]
- [  0.000000000000000,  0.000000000000000,  1.000000000000000 ]

supercell_matrix:
- [   2,   0,   0 ]
- [   0,   2,   0 ]
- [   0,   0,   2 ]

primitive_cell:
  lattice:
  - [    -6.071346644464733,     0.000000000000000,     0.000000000000000 ] # a
  - [    -5.134859950906812,    -3.239515143105139,     0.000000000000000 ] # b
  - [     2.460646066277690,     0.711328118495107,     7.452843252045215 ] # c
  points:
  - symbol: Li # 1
    coordinates: [  0.998780027552444,  0.998780056275229,  0.005611911968190 ]
    mass: 6.940000
  - symbol: Li # 2
    coordinates: [  0.612331078642322,  0.612331066997168,  0.716610318058718 ]
    mass: 6.940000
  - symbol: Sn # 3
    coordinates: [  0.337777867761399,  0.337777896338153,  0.685178081053772 ]
    mass: 118.710000
  - symbol: Sn # 4
    coordinates: [  0.664272011014722,  0.664271981433530,  0.326758651681425 ]
    mass: 118.710000
  - symbol: Sn # 5
    coordinates: [  0.946839108867110,  0.946839120318048,  0.395463574482253 ]
    mass: 118.710000
  - symbol: Sn # 6
    coordinates: [  0.273333238978268,  0.273333211823084,  0.037044129364914 ]
    mass: 118.710000
  reciprocal_lattice: # without 2pi
  - [    -0.164708104899875,     0.261073961404438,     0.029462460597409 ] # a*
  - [    -0.000000000000000,    -0.308688169625742,     0.029462390053799 ] # b*
  - [    -0.000000000000000,    -0.000000000000000,     0.134176980003649 ] # c*

unit_cell:
  lattice:
  - [     6.071346644464735,     0.000000000000000,     0.000000000000000 ] # a
  - [     5.134859950906813,     3.239515143105139,     0.000000000000000 ] # b
  - [     2.460646066277691,     0.711328118495107,     7.452843252045216 ] # c
  points:
  - symbol: Li # 1
    coordinates: [  0.001219972447556,  0.001219943724771,  0.005611911968190 ]
    mass: 6.940000
    reduced_to: 1
  - symbol: Li # 2
    coordinates: [  0.387668921357677,  0.387668933002832,  0.716610318058718 ]
    mass: 6.940000
    reduced_to: 2
  - symbol: Sn # 3
    coordinates: [  0.662222132238601,  0.662222103661847,  0.685178081053772 ]
    mass: 118.710000
    reduced_to: 3
  - symbol: Sn # 4
    coordinates: [  0.335727988985278,  0.335728018566470,  0.326758651681425 ]
    mass: 118.710000
    reduced_to: 4
  - symbol: Sn # 5
    coordinates: [  0.053160891132890,  0.053160879681952,  0.395463574482253 ]
    mass: 118.710000
    reduced_to: 5
  - symbol: Sn # 6
    coordinates: [  0.726666761021732,  0.726666788176916,  0.037044129364914 ]
    mass: 118.710000
    reduced_to: 6

supercell:
  lattice:
  - [    12.142693288929470,     0.000000000000000,     0.000000000000000 ] # a
  - [    10.269719901813627,     6.479030286210278,     0.000000000000000 ] # b
  - [     4.921292132555382,     1.422656236990215,    14.905686504090433 ] # c
  points:
  - symbol: Li # 1
    coordinates: [  0.000609986223778,  0.000609971862386,  0.002805955984095 ]
    mass: 6.940000
    reduced_to: 1
  - symbol: Li # 2
    coordinates: [  0.500609986223778,  0.000609971862386,  0.002805955984095 ]
    mass: 6.940000
    reduced_to: 1
  - symbol: Li # 3
    coordinates: [  0.000609986223778,  0.500609971862386,  0.002805955984095 ]
    mass: 6.940000
    reduced_to: 1
  - symbol: Li # 4
    coordinates: [  0.500609986223778,  0.500609971862386,  0.002805955984095 ]
    mass: 6.940000
    reduced_to: 1
  - symbol: Li # 5
    coordinates: [  0.000609986223778,  0.000609971862386,  0.502805955984095 ]
    mass: 6.940000
    reduced_to: 1
  - symbol: Li # 6
    coordinates: [  0.500609986223778,  0.000609971862386,  0.502805955984095 ]
    mass: 6.940000
    reduced_to: 1
  - symbol: Li # 7
    coordinates: [  0.000609986223778,  0.500609971862386,  0.502805955984095 ]
    mass: 6.940000
    reduced_to: 1
  - symbol: Li # 8
    coordinates: [  0.500609986223778,  0.500609971862386,  0.502805955984095 ]
    mass: 6.940000
    reduced_to: 1
  - symbol: Li # 9
    coordinates: [  0.193834460678839,  0.193834466501416,  0.358305159029359 ]
    mass: 6.940000
    reduced_to: 9
  - symbol: Li # 10
    coordinates: [  0.693834460678839,  0.193834466501416,  0.358305159029359 ]
    mass: 6.940000
    reduced_to: 9
  - symbol: Li # 11
    coordinates: [  0.193834460678839,  0.693834466501416,  0.358305159029359 ]
    mass: 6.940000
    reduced_to: 9
  - symbol: Li # 12
    coordinates: [  0.693834460678839,  0.693834466501416,  0.358305159029359 ]
    mass: 6.940000
    reduced_to: 9
  - symbol: Li # 13
    coordinates: [  0.193834460678839,  0.193834466501416,  0.858305159029359 ]
    mass: 6.940000
    reduced_to: 9
  - symbol: Li # 14
    coordinates: [  0.693834460678839,  0.193834466501416,  0.858305159029359 ]
    mass: 6.940000
    reduced_to: 9
  - symbol: Li # 15
    coordinates: [  0.193834460678839,  0.693834466501416,  0.858305159029359 ]
    mass: 6.940000
    reduced_to: 9
  - symbol: Li # 16
    coordinates: [  0.693834460678839,  0.693834466501416,  0.858305159029359 ]
    mass: 6.940000
    reduced_to: 9
  - symbol: Sn # 17
    coordinates: [  0.331111066119300,  0.331111051830923,  0.342589040526886 ]
    mass: 118.710000
    reduced_to: 17
  - symbol: Sn # 18
    coordinates: [  0.831111066119300,  0.331111051830923,  0.342589040526886 ]
    mass: 118.710000
    reduced_to: 17
  - symbol: Sn # 19
    coordinates: [  0.331111066119300,  0.831111051830923,  0.342589040526886 ]
    mass: 118.710000
    reduced_to: 17
  - symbol: Sn # 20
    coordinates: [  0.831111066119300,  0.831111051830923,  0.342589040526886 ]
    mass: 118.710000
    reduced_to: 17
  - symbol: Sn # 21
    coordinates: [  0.331111066119300,  0.331111051830923,  0.842589040526886 ]
    mass: 118.710000
    reduced_to: 17
  - symbol: Sn # 22
    coordinates: [  0.831111066119300,  0.331111051830923,  0.842589040526886 ]
    mass: 118.710000
    reduced_to: 17
  - symbol: Sn # 23
    coordinates: [  0.331111066119300,  0.831111051830923,  0.842589040526886 ]
    mass: 118.710000
    reduced_to: 17
  - symbol: Sn # 24
    coordinates: [  0.831111066119300,  0.831111051830923,  0.842589040526886 ]
    mass: 118.710000
    reduced_to: 17
  - symbol: Sn # 25
    coordinates: [  0.167863994492639,  0.167864009283235,  0.163379325840713 ]
    mass: 118.710000
    reduced_to: 25
  - symbol: Sn # 26
    coordinates: [  0.667863994492639,  0.167864009283235,  0.163379325840713 ]
    mass: 118.710000
    reduced_to: 25
  - symbol: Sn # 27
    coordinates: [  0.167863994492639,  0.667864009283235,  0.163379325840713 ]
    mass: 118.710000
    reduced_to: 25
  - symbol: Sn # 28
    coordinates: [  0.667863994492639,  0.667864009283235,  0.163379325840713 ]
    mass: 118.710000
    reduced_to: 25
  - symbol: Sn # 29
    coordinates: [  0.167863994492639,  0.167864009283235,  0.663379325840713 ]
    mass: 118.710000
    reduced_to: 25
  - symbol: Sn # 30
    coordinates: [  0.667863994492639,  0.167864009283235,  0.663379325840713 ]
    mass: 118.710000
    reduced_to: 25
  - symbol: Sn # 31
    coordinates: [  0.167863994492639,  0.667864009283235,  0.663379325840713 ]
    mass: 118.710000
    reduced_to: 25
  - symbol: Sn # 32
    coordinates: [  0.667863994492639,  0.667864009283235,  0.663379325840713 ]
    mass: 118.710000
    reduced_to: 25
  - symbol: Sn # 33
    coordinates: [  0.026580445566445,  0.026580439840976,  0.197731787241126 ]
    mass: 118.710000
    reduced_to: 33
  - symbol: Sn # 34
    coordinates: [  0.526580445566445,  0.026580439840976,  0.197731787241126 ]
    mass: 118.710000
    reduced_to: 33
  - symbol: Sn # 35
    coordinates: [  0.026580445566445,  0.526580439840976,  0.197731787241126 ]
    mass: 118.710000
    reduced_to: 33
  - symbol: Sn # 36
    coordinates: [  0.526580445566445,  0.526580439840976,  0.197731787241126 ]
    mass: 118.710000
    reduced_to: 33
  - symbol: Sn # 37
    coordinates: [  0.026580445566445,  0.026580439840976,  0.697731787241126 ]
    mass: 118.710000
    reduced_to: 33
  - symbol: Sn # 38
    coordinates: [  0.526580445566445,  0.026580439840976,  0.697731787241126 ]
    mass: 118.710000
    reduced_to: 33
  - symbol: Sn # 39
    coordinates: [  0.026580445566445,  0.526580439840976,  0.697731787241126 ]
    mass: 118.710000
    reduced_to: 33
  - symbol: Sn # 40
    coordinates: [  0.526580445566445,  0.526580439840976,  0.697731787241126 ]
    mass: 118.710000
    reduced_to: 33
  - symbol: Sn # 41
    coordinates: [  0.363333380510866,  0.363333394088458,  0.018522064682457 ]
    mass: 118.710000
    reduced_to: 41
  - symbol: Sn # 42
    coordinates: [  0.863333380510866,  0.363333394088458,  0.018522064682457 ]
    mass: 118.710000
    reduced_to: 41
  - symbol: Sn # 43
    coordinates: [  0.363333380510866,  0.863333394088458,  0.018522064682457 ]
    mass: 118.710000
    reduced_to: 41
  - symbol: Sn # 44
    coordinates: [  0.863333380510866,  0.863333394088458,  0.018522064682457 ]
    mass: 118.710000
    reduced_to: 41
  - symbol: Sn # 45
    coordinates: [  0.363333380510866,  0.363333394088458,  0.518522064682457 ]
    mass: 118.710000
    reduced_to: 41
  - symbol: Sn # 46
    coordinates: [  0.863333380510866,  0.363333394088458,  0.518522064682457 ]
    mass: 118.710000
    reduced_to: 41
  - symbol: Sn # 47
    coordinates: [  0.363333380510866,  0.863333394088458,  0.518522064682457 ]
    mass: 118.710000
    reduced_to: 41
  - symbol: Sn # 48
    coordinates: [  0.863333380510866,  0.863333394088458,  0.518522064682457 ]
    mass: 118.710000
    reduced_to: 41

displacements:
- atom:    1
  displacement:
    [   0.0100000000000000,  0.0000000000000000,  0.0000000000000000 ]
  forces:
  - [   0.0223689898848534,  0.0101713221520185,  0.0213708262890577 ]
  - [   0.0343147478997707,  0.0103766405954957,  0.0169018395245075 ]
  - [   0.0348001196980476,  0.0096231568604708,  0.0169417001307011 ]
  - [   0.0358633473515511,  0.0095310918986797,  0.0171286240220070 ]
  - [   0.0357610210776329,  0.0103364568203688,  0.0168440435081720 ]
  - [   0.0357161276042461,  0.0103576937690377,  0.0168731398880482 ]
  - [   0.0357511863112450,  0.0103022791445255,  0.0168347097933292 ]
  - [   0.0357536487281322,  0.0103369932621717,  0.0168414469808340 ]
  - [  -0.0356937348842621, -0.0103069432079792, -0.0169084630906582 ]
  - [  -0.0357394888997078, -0.0103175779804587, -0.0168159268796444 ]
  - [  -0.0357210263609886, -0.0103475823998451, -0.0168353840708733 ]
  - [  -0.0357476584613323, -0.0103451088070869, -0.0167549327015877 ]
  - [  -0.0356560945510864, -0.0103102466091514, -0.0168597269803286 ]
  - [  -0.0350709259510040, -0.0107501307502389, -0.0161440409719944 ]
  - [  -0.0355962775647640, -0.0099159320816398, -0.0162538513541222 ]
  - [  -0.0357663631439209, -0.0102555137127638, -0.0164193026721478 ]
  - [  -0.0438968017697334, -0.0127994865179062, -0.0190885886549950 ]
  - [  -0.0440567433834076, -0.0126523580402136, -0.0188068971037865 ]
  - [  -0.0440561175346375, -0.0128000257536769, -0.0188471823930740 ]
  - [  -0.0441652759909630, -0.0128034967929125, -0.0186069533228874 ]
  - [  -0.0440332666039467, -0.0127216447144747, -0.0186873674392700 ]
  - [  -0.0438908115029335, -0.0118672661483288, -0.0202917829155922 ]
  - [  -0.0426262393593788, -0.0140946730971336, -0.0216621458530426 ]
  - [  -0.0440876632928848, -0.0127360038459301, -0.0189383551478386 ]
  - [  -0.0054520280100405, -0.0015789924655110, -0.0309318937361240 ]
  - [  -0.0040910663083196, -0.0026837035547942, -0.0330527201294899 ]
  - [  -0.0051862779073417, -0.0009421007707715, -0.0319273546338081 ]
  - [  -0.0055973059497774, -0.0016200051177293, -0.0308980755507946 ]
  - [  -0.0054860627278686, -0.0016096169129014, -0.0307006444782019 ]
  - [  -0.0054353829473257, -0.0016239210963249, -0.0308279488235712 ]
  - [  -0.0054433932527900, -0.0015234765596688, -0.0307983160018921 ]
  - [  -0.0054212165996432, -0.0015507960924879, -0.0307394228875637 ]
  - [   0.0055986121296883,  0.0016573446337134,  0.0320832952857018 ]
  - [   0.0053700567223132,  0.0016116111073643,  0.0308712869882584 ]
  - [   0.0053941276855767,  0.0014912502374500,  0.0309006851166487 ]
  - [   0.0055904164910316,  0.0014203391037881,  0.0311913862824440 ]
  - [   0.0053942948579788,  0.0016011423431337,  0.0307054370641708 ]
  - [   0.0054837116040289,  0.0015314896591008,  0.0307815205305815 ]
  - [   0.0054464461281896,  0.0016281660646200,  0.0307912081480026 ]
  - [   0.0053632864728570,  0.0015064417384565,  0.0308744199573994 ]
  - [   0.0436929687857628,  0.0127328038215637,  0.0188014283776283 ]
  - [   0.0465442910790443,  0.0150115117430687,  0.0187098756432533 ]
  - [   0.0484485551714897,  0.0118289189413190,  0.0186667069792747 ]
  - [   0.0489729419350624,  0.0141380773857236,  0.0184512883424759 ]
  - [   0.0440494492650032,  0.0127355428412557,  0.0187901332974434 ]
  - [   0.0440974906086922,  0.0127341058105230,  0.0188043341040611 ]
  - [   0.0440894216299057,  0.0127589022740722,  0.0188189148902893 ]
  - [   0.0440518707036972,  0.0127332750707865,  0.0188190266489983 ]
- atom:    1
  displacement:
    [  -0.0100000000000000,  0.0000000000000000,  0.0000000000000000 ]
  forces:
  - [   0.0491543784737587,  0.0105508882552385,  0.0123079027980566 ]
  - [   0.0371687039732933,  0.0102713657543063,  0.0168103910982609 ]
  - [   0.0366824232041836,  0.0110580623149872,  0.0167724862694740 ]
  - [   0.0356159545481205,  0.0111332014203072,  0.0165787748992443 ]
  - [   0.0357210412621498,  0.0103268129751086,  0.0168668925762177 ]
  - [   0.0357658714056015,  0.0103064272552729,  0.0168399419635534 ]
  - [   0.0357306823134422,  0.0103620905429125,  0.0168768055737019 ]
  - [   0.0357277058064938,  0.0103276111185551,  0.0168702695518732 ]
  - [  -0.0357887148857117, -0.0103567214682698, -0.0168038085103035 ]
  - [  -0.0357426851987839, -0.0103461416438222, -0.0169001463800669 ]
  - [  -0.0357611551880836, -0.0103177307173610, -0.0168797019869089 ]
  - [  -0.0357356444001198, -0.0103193242102861, -0.0169578436762094 ]
  - [  -0.0358231104910374, -0.0103524653241038, -0.0168544538319111 ]
  - [  -0.0364246591925621, -0.0099070351570845, -0.0175836607813835 ]
  - [  -0.0358896255493164, -0.0107535813003778, -0.0174644738435745 ]
  - [  -0.0357136987149715, -0.0104088215157390, -0.0172871779650450 ]
  - [  -0.0442897304892540, -0.0126961097121239, -0.0185704603791237 ]
  - [  -0.0441347137093544, -0.0128419734537601, -0.0188425555825233 ]
  - [  -0.0441369563341141, -0.0126938708126545, -0.0188018307089806 ]
  - [  -0.0440240316092968, -0.0126876691356301, -0.0190396830439568 ]
  - [  -0.0441557243466377, -0.0127731990069151, -0.0189660415053368 ]
  - [  -0.0443137921392918, -0.0136372428387403, -0.0173407942056656 ]
  - [  -0.0455594211816788, -0.0114219672977924, -0.0160243734717369 ]
  - [  -0.0440946891903877, -0.0127571811899543, -0.0187013894319534 ]
  - [  -0.0053680995479226, -0.0015495717525482, -0.0306596085429192 ]
  - [  -0.0067435768432915, -0.0004144855774939, -0.0284794233739376 ]
  - [  -0.0056278482079506, -0.0021872429642826, -0.0296579003334045 ]
  - [  -0.0052272318862379, -0.0015082679456100, -0.0306966248899698 ]
  - [  -0.0053379982709885, -0.0015212320722640, -0.0308905038982630 ]
  - [  -0.0053913276642561, -0.0015029725618660, -0.0307608768343925 ]
  - [  -0.0053793415427208, -0.0016085884999484, -0.0307916197925806 ]
  - [  -0.0054032229818404, -0.0015781263355166, -0.0308487303555012 ]
  - [   0.0052249603904784,  0.0014748212415725,  0.0295241326093674 ]
  - [   0.0054481839761138,  0.0015146660152823,  0.0307226441800594 ]
  - [   0.0054262015037239,  0.0016384860500693,  0.0306894611567259 ]
  - [   0.0052272123284638,  0.0017109285108745,  0.0303960721939802 ]
  - [   0.0054295128211379,  0.0015276393387467,  0.0308843478560448 ]
  - [   0.0053384620696306,  0.0016002373304218,  0.0308078769594431 ]
  - [   0.0053808535449207,  0.0014985906891525,  0.0307959355413914 ]
  - [   0.0054601468145847,  0.0016230521723628,  0.0307131111621857 ]
  - [   0.0445059835910797,  0.0127580286934972,  0.0188427194952965 ]
  - [   0.0416939556598663,  0.0105424150824547,  0.0189409255981445 ]
  - [   0.0399152636528015,  0.0136230885982513,  0.0189873799681664 ]
  - [   0.0389763750135899,  0.0112777110189199,  0.0192119702696800 ]
  - [   0.0441409647464752,  0.0127591826021671,  0.0188612788915634 ]
  - [   0.0440944060683250,  0.0127589032053947,  0.0188440158963203 ]
  - [   0.0440993681550026,  0.0127362580969930,  0.0188300535082817 ]
  - [   0.0441384091973305,  0.0127610415220261,  0.0188282281160355 ]
- atom:    1
  displacement:
    [   0.0031223647257589,  0.0009026189731502,  0.0094570670669424 ]
  forces:
  - [   0.0358183532953262,  0.0103549584746361,  0.0030638300813735 ]
  - [   0.0353431701660156,  0.0104399444535375,  0.0169753171503544 ]
  - [   0.0354617685079575,  0.0100290887057781,  0.0169761795550585 ]
  - [   0.0359699241816998,  0.0103974612429738,  0.0166466049849987 ]
  - [   0.0357370935380459,  0.0103304693475366,  0.0168213993310928 ]
  - [   0.0357513874769211,  0.0102792400866747,  0.0168726146221161 ]
  - [   0.0357216037809849,  0.0103824008256197,  0.0168715920299292 ]
  - [   0.0357315391302109,  0.0103296348825097,  0.0168588906526566 ]
  - [  -0.0357732176780701, -0.0103408759459853, -0.0169806517660618 ]
  - [  -0.0356988981366158, -0.0103499628603458, -0.0170712992548943 ]
  - [  -0.0357148833572865, -0.0102949291467667, -0.0170706044882536 ]
  - [  -0.0356485880911350, -0.0103054316714406, -0.0168975051492453 ]
  - [  -0.0357201844453812, -0.0103259915485978, -0.0168042983859777 ]
  - [  -0.0348955243825912, -0.0104528488591313, -0.0159416478127241 ]
  - [  -0.0350918620824814, -0.0097788823768497, -0.0159409195184708 ]
  - [  -0.0353363826870918, -0.0102149983868003, -0.0166113972663879 ]
  - [  -0.0442609339952469, -0.0127957444638014, -0.0182298794388771 ]
  - [  -0.0440067686140537, -0.0125459125265479, -0.0187409222126007 ]
  - [  -0.0439136438071728, -0.0128701329231262, -0.0187403187155724 ]
  - [  -0.0439269319176674, -0.0126972971484065, -0.0191620886325836 ]
  - [  -0.0442143343389034, -0.0127820950001478, -0.0188368037343025 ]
  - [  -0.0450646206736565, -0.0149000287055969, -0.0162336975336075 ]
  - [  -0.0460623130202293, -0.0114428438246250, -0.0162345618009567 ]
  - [  -0.0439798347651958, -0.0127142760902643, -0.0188265666365623 ]
  - [  -0.0053917644545436, -0.0015583732165396, -0.0308651458472013 ]
  - [  -0.0072238785214722, -0.0001556035131216, -0.0283930785953999 ]
  - [  -0.0061937388963997, -0.0037231515161693, -0.0283932816237211 ]
  - [  -0.0055893645621836, -0.0016161650419235, -0.0308950953185558 ]
  - [  -0.0053838291205466, -0.0015569669194520, -0.0307898446917534 ]
  - [  -0.0054278918541968, -0.0015720287337899, -0.0308709181845188 ]
  - [  -0.0054277889430523, -0.0015662652440369, -0.0308708772063255 ]
  - [  -0.0052610081620514, -0.0015212196158245, -0.0309597626328468 ]
  - [   0.0057748579420149,  0.0016696329694241,  0.0329900309443474 ]
  - [   0.0055173775181174,  0.0015796083025634,  0.0307940393686295 ]
  - [   0.0055087367072701,  0.0016073698643595,  0.0307936761528254 ]
  - [   0.0053130718879402,  0.0015367360319942,  0.0314048603177071 ]
  - [   0.0053720897994936,  0.0015528411604464,  0.0306631512939930 ]
  - [   0.0053986408747733,  0.0015246926341206,  0.0307863801717758 ]
  - [   0.0053810649551451,  0.0015914859250188,  0.0307853017002344 ]
  - [   0.0054872641339898,  0.0015863217413425,  0.0309106037020683 ]
  - [   0.0440498217940331,  0.0127343041822314,  0.0187768712639809 ]
  - [   0.0450046658515930,  0.0136552238836884,  0.0185356214642525 ]
  - [   0.0453487113118172,  0.0124640641734004,  0.0185358524322510 ]
  - [   0.0450067892670631,  0.0130105018615723,  0.0190187096595764 ]
  - [   0.0441476628184319,  0.0127622811123729,  0.0188668891787529 ]
  - [   0.0441035404801369,  0.0127764381468296,  0.0187974944710732 ]
  - [   0.0441164411604404,  0.0127262109890580,  0.0187976583838463 ]
  - [   0.0441424995660782,  0.0127610992640257,  0.0188176110386848 ]
- atom:    1
  displacement:
    [  -0.0031223647257589, -0.0009026189731502, -0.0094570670669424 ]
  forces:
  - [   0.0356421805918217,  0.0103041725233197,  0.0305698122829199 ]
  - [   0.0361383780837059,  0.0102237286046147,  0.0167379602789879 ]
  - [   0.0360189415514469,  0.0106361750513315,  0.0167387649416924 ]
  - [   0.0355172567069530,  0.0102666541934013,  0.0170771591365337 ]
  - [   0.0357452034950256,  0.0103328377008438,  0.0168886296451092 ]
  - [   0.0357308611273766,  0.0103849777951837,  0.0168398115783930 ]
  - [   0.0357606261968613,  0.0102821346372366,  0.0168387629091740 ]
  - [   0.0357499681413174,  0.0103349937126040,  0.0168523788452148 ]
  - [  -0.0357085019350052, -0.0103222057223320, -0.0167324505746365 ]
  - [  -0.0357822328805923, -0.0103145083412528, -0.0166477877646685 ]
  - [  -0.0357665084302425, -0.0103693306446075, -0.0166470240801573 ]
  - [  -0.0358344651758671, -0.0103591531515121, -0.0168154556304216 ]
  - [  -0.0357709899544716, -0.0103407986462116, -0.0169056840240955 ]
  - [  -0.0366038903594017, -0.0102040208876133, -0.0177819840610027 ]
  - [  -0.0364039540290833, -0.0109007898718119, -0.0177813209593296 ]
  - [  -0.0361547358334064, -0.0104515356943011, -0.0170988030731678 ]
  - [  -0.0439193807542324, -0.0126970326527953, -0.0194277316331863 ]
  - [  -0.0441845506429672, -0.0129421483725309, -0.0189070180058479 ]
  - [  -0.0442754179239273, -0.0126297092065215, -0.0189062952995300 ]
  - [  -0.0442614555358887, -0.0127941295504570, -0.0184805691242218 ]
  - [  -0.0439719259738922, -0.0127121377736330, -0.0188121944665909 ]
  - [  -0.0430926755070686, -0.0105298785492778, -0.0214593335986137 ]
  - [  -0.0420627482235432, -0.0140866655856371, -0.0214603915810585 ]
  - [  -0.0442096740007401, -0.0127806738018990, -0.0188244208693504 ]
  - [  -0.0054317507892847, -0.0015698997303843, -0.0307269208133221 ]
  - [  -0.0036561177112162, -0.0029292767867446, -0.0331460423767567 ]
  - [  -0.0046564284712076,  0.0005262522026896, -0.0331460721790791 ]
  - [  -0.0052372715435922, -0.0015143535565585, -0.0306987557560205 ]
  - [  -0.0054356344044209, -0.0015718233771622, -0.0308071132749319 ]
  - [  -0.0054004150442779, -0.0015552863478661, -0.0307170860469341 ]
  - [  -0.0053954417817295, -0.0015658629126847, -0.0307171158492565 ]
  - [  -0.0055678356438875, -0.0016098599880934, -0.0306239333003759 ]
  - [   0.0050829611718655,  0.0014694833662361,  0.0286963116377592 ]
  - [   0.0053027886897326,  0.0015470441430807,  0.0307971984148026 ]
  - [   0.0053097512573004,  0.0015203512739390,  0.0307968966662884 ]
  - [   0.0055055087432265,  0.0015924326144159,  0.0301657225936651 ]
  - [   0.0054605468176305,  0.0015782932750881,  0.0309826787561178 ]
  - [   0.0054241563193500,  0.0016074418090284,  0.0308036953210831 ]
  - [   0.0054467879235744,  0.0015351939946413,  0.0308026857674122 ]
  - [   0.0053348038345575,  0.0015422662254423,  0.0306696761399508 ]
  - [   0.0441414713859558,  0.0127605432644486,  0.0188710689544678 ]
  - [   0.0431829914450645,  0.0118434783071280,  0.0190984010696411 ]
  - [   0.0428414605557919,  0.0130242630839348,  0.0190985277295113 ]
  - [   0.0431943386793137,  0.0124866459518671,  0.0186267346143723 ]
  - [   0.0440443307161331,  0.0127324126660824,  0.0187861546874046 ]
  - [   0.0440892279148102,  0.0127164265140891,  0.0188521072268486 ]
  - [   0.0440725907683372,  0.0127692427486181,  0.0188522264361382 ]
  - [   0.0440469086170197,  0.0127335963770747,  0.0188280940055847 ]
- atom:   17
  displacement:
    [   0.0100000000000000,  0.0000000000000000,  0.0000000000000000 ]
  forces:
  - [   0.0359361246228218,  0.0102816037833691,  0.0166185460984707 ]
  - [   0.0357792153954506,  0.0102821448817849,  0.0169430710375309 ]
  - [   0.0357807576656342,  0.0104238875210285,  0.0170265808701515 ]
  - [   0.0356706827878952,  0.0102722523733974,  0.0170621313154697 ]
  - [   0.0358014628291130,  0.0103577440604568,  0.0167026352137327 ]
  - [   0.0359637439250946,  0.0109928427264094,  0.0156784635037184 ]
  - [   0.0372149199247360,  0.0092385243624449,  0.0143829323351383 ]
  - [   0.0357453525066376,  0.0103432508185506,  0.0169757902622223 ]
  - [  -0.0308702886104584, -0.0089451372623444, -0.0176708698272705 ]
  - [  -0.0313786230981350, -0.0110439676791430, -0.0168669372797012 ]
  - [  -0.0332885086536407, -0.0082717034965754, -0.0168808028101921 ]
  - [  -0.0361476168036461, -0.0103494720533490, -0.0167690124362707 ]
  - [  -0.0357845947146416, -0.0103460550308228, -0.0167901217937469 ]
  - [  -0.0357457883656025, -0.0103336619213223, -0.0168316103518009 ]
  - [  -0.0357405543327332, -0.0103313624858856, -0.0168487448245287 ]
  - [  -0.0357876420021057, -0.0103441579267383, -0.0167850255966187 ]
  - [  -0.0646974369883537, -0.0146921547129750, -0.0202561914920807 ]
  - [  -0.0445323511958122, -0.0127330981194973, -0.0189164429903030 ]
  - [  -0.0443588197231293, -0.0129957767203450, -0.0189157426357269 ]
  - [  -0.0442692935466766, -0.0148754986003041, -0.0186791047453880 ]
  - [  -0.0440920330584049, -0.0127512607723475, -0.0188896581530571 ]
  - [  -0.0441246777772903, -0.0127462530508637, -0.0187846571207047 ]
  - [  -0.0441129952669144, -0.0127612967044115, -0.0187988281250000 ]
  - [  -0.0440581738948822, -0.0127324229106307, -0.0188154876232147 ]
  - [  -0.0051521575078368, -0.0014273335691541, -0.0305552221834660 ]
  - [  -0.0042760139331222, -0.0022669765166938, -0.0328504219651222 ]
  - [  -0.0058473502285779, -0.0006362616550177, -0.0315873213112354 ]
  - [  -0.0046156537719071, -0.0014654035912827, -0.0306265633553267 ]
  - [  -0.0053440001793206, -0.0015553734265268, -0.0309153869748116 ]
  - [  -0.0052938903681934, -0.0017022769898176, -0.0306104309856892 ]
  - [  -0.0053318464197218, -0.0013317535631359, -0.0305675193667412 ]
  - [  -0.0055766738951206, -0.0014912255574018, -0.0305597521364689 ]
  - [   0.0053403368219733,  0.0015080366283655,  0.0307497642934322 ]
  - [   0.0055639264173806,  0.0024562852922827,  0.0314182899892330 ]
  - [   0.0073048565536737,  0.0009465536568314,  0.0321214124560356 ]
  - [   0.0063595143146813,  0.0019395074341446,  0.0304508935660124 ]
  - [   0.0053603886626661,  0.0015463395975530,  0.0308840051293373 ]
  - [   0.0054394518956542,  0.0014884793199599,  0.0307944212108850 ]
  - [   0.0053692129440606,  0.0016382047906518,  0.0308059044182301 ]
  - [   0.0053806975483894,  0.0015585205983371,  0.0308081731200218 ]
  - [   0.0439775437116623,  0.0127833010628819,  0.0187598690390587 ]
  - [   0.0440102145075798,  0.0127375628799200,  0.0188182964920998 ]
  - [   0.0440260469913483,  0.0127118602395058,  0.0187903940677643 ]
  - [   0.0437993928790092,  0.0126010067760944,  0.0189116969704628 ]
  - [   0.0477855950593948,  0.0139592848718166,  0.0242171064019203 ]
  - [   0.0443262159824371,  0.0128493001684546,  0.0186670795083046 ]
  - [   0.0443669222295284,  0.0127855995669961,  0.0186808332800865 ]
  - [   0.0441244542598724,  0.0124278198927641,  0.0195036679506302 ]
- atom:   17
  displacement:
    [  -0.0100000000000000,  0.0000000000000000,  0.0000000000000000 ]
  forces:
  - [   0.0355434007942677,  0.0103843379765749,  0.0170996598899364 ]
  - [   0.0357013270258904,  0.0103837233036757,  0.0167713686823845 ]
  - [   0.0356998592615128,  0.0102384500205517,  0.0166884921491146 ]
  - [   0.0358119755983353,  0.0103880371898413,  0.0166506152600050 ]
  - [   0.0356791839003563,  0.0103061022236943,  0.0170042589306831 ]
  - [   0.0355406031012535,  0.0096855899319053,  0.0180276297032833 ]
  - [   0.0342815741896629,  0.0114483982324600,  0.0193688981235027 ]
  - [   0.0357380695641041,  0.0103220241144300,  0.0167369991540909 ]
  - [  -0.0408651903271675, -0.0118050212040544, -0.0160152502357960 ]
  - [  -0.0399101823568344, -0.0096790362149477, -0.0168321523815393 ]
  - [  -0.0381384193897247, -0.0123117826879025, -0.0168204437941313 ]
  - [  -0.0353348404169083, -0.0103239864110947, -0.0169432722032070 ]
  - [  -0.0356980562210083, -0.0103183938190341, -0.0169220045208931 ]
  - [  -0.0357358828186989, -0.0103304693475366, -0.0168817676603794 ]
  - [  -0.0357440039515495, -0.0103325089439750, -0.0168626084923744 ]
  - [  -0.0356959477066994, -0.0103204110637307, -0.0169262550771236 ]
  - [  -0.0235137604176998, -0.0107639785856009, -0.0174836069345474 ]
  - [  -0.0436592251062393, -0.0127693824470043, -0.0187311768531799 ]
  - [  -0.0438287481665611, -0.0124886399134994, -0.0187300592660904 ]
  - [  -0.0439032167196274, -0.0106133846566081, -0.0189798772335052 ]
  - [  -0.0440985821187496, -0.0127437664195895, -0.0187602415680885 ]
  - [  -0.0440665334463120, -0.0127494782209396, -0.0188604444265366 ]
  - [  -0.0440760478377342, -0.0127306310459971, -0.0188473612070084 ]
  - [  -0.0441293790936470, -0.0127622261643410, -0.0188346654176712 ]
  - [  -0.0056661586277187, -0.0016969784628600, -0.0310350842773914 ]
  - [  -0.0065365196205676, -0.0008962908759713, -0.0287892967462540 ]
  - [  -0.0049956561997533, -0.0024840610567480, -0.0299957375973463 ]
  - [  -0.0061949919909239, -0.0016625361749902, -0.0309618040919304 ]
  - [  -0.0054784337989986, -0.0015740590170026, -0.0306777469813824 ]
  - [  -0.0055347662419081, -0.0014249784871936, -0.0309803262352943 ]
  - [  -0.0054906215518713, -0.0017993582878262, -0.0310223922133446 ]
  - [  -0.0052474038675427, -0.0016404284397140, -0.0310295727103949 ]
  - [   0.0054741511121392,  0.0016209441237152,  0.0308441855013371 ]
  - [   0.0052682058885694,  0.0006425026804209,  0.0301472432911396 ]
  - [   0.0034606615081429,  0.0022242988925427,  0.0293878316879272 ]