6
Lattice="4.7979345728127285 0.001140591333788653 0.00021163927801924514 -2.4003444898436137 4.153387506610324 -0.001105144867664294 -8.65254400287037e-06 3.3009747874974096e-05 5.76463997658286" Properties=species:S:1:pos:R:3:forces:R:3 structure_index=0 total_energy=-17.567764282226562 stress="0.050673503428697586 -0.0012495386181399226 5.815850818180479e-05 -0.0012493894901126623 0.05147290974855423 -0.00019213187624700367 5.8241952501703054e-05 -0.0001921211660373956 0.011858506128191948" pbc="T T T"
Li      -0.55790963       1.22824809       0.13409033      -0.00016113       0.00020255      -0.00182875
Li       1.84160097       2.61319788       4.45682053       0.00166728      -0.00201545       0.00078448
Li      -0.55828738       1.22821575       3.01638705       0.00029940       0.00025296      -0.00176890
Li      -0.56049989       3.99757729       1.57095538      -0.00040204       0.00396321       0.00155821
Sn       1.83860357       2.61572330       1.57423076      -0.00018924      -0.00373792       0.00367073
Sn      -0.55690608       3.99600793       4.45399918      -0.00121424       0.00133465      -0.00241577
20
Lattice="5.22814717383505 0.00017918645652952272 -0.0003707513891111604 -0.0003547514302113706 7.842753457409784 -3.498011875033622 0.00024573138745461517 -0.05355962852789716 11.608155685670106" Properties=species:S:1:pos:R:3:forces:R:3 structure_index=1 total_energy=-69.26339721679688 stress="-0.0046710968017578125 -1.0295524589309935e-05 -3.575953815015964e-05 -1.0285942153132055e-05 -0.008452051319181919 -0.0032481802627444267 -3.574807124095969e-05 -0.003248145105317235 -0.010418529622256756" pbc="T T T"
Li       4.44212226       0.88977673       8.24002189       0.00022441      -0.02169101      -0.00544105
Li       4.44380634       5.50561285       3.93175986      -0.00060668      -0.01362276       0.00783626
Li       1.82867110       6.00239335       2.03296854      -0.00011239       0.01057058      -0.01214303
Li       4.44081630       1.78004403      -0.20812024       0.00023907       0.02155495       0.00153713
Li       1.82675031       7.73887332      -3.38184355      -0.00017781      -0.01711821       0.00345542
Li       1.82827505       4.51834649       7.44500548      -0.00006158      -0.01244282      -0.00662592
Li       1.82808513       0.68740475       3.39945641       0.00022113       0.01961410       0.01142261
Sn       4.44341610       7.82221782       1.71812528      -0.00043189       0.00780077      -0.00678202
Sn       4.44121364       4.76891555       0.80397635       0.00044360       0.00601651      -0.00199664
Sn       1.82985848       3.81472411       4.26968850      -0.00080045      -0.00090626      -0.00201477
Sn       4.44071476       7.32467175      -1.59871345       0.00029892      -0.00292512      -0.00302381
Sn       1.82719950       2.89652724       1.07404530       0.00044968       0.00349095       0.00674701
Sn       1.82722730       2.11530439       9.61553328       0.00038367      -0.00813563      -0.00272639
Sn       1.83010162       1.35493409       6.46747590      -0.00084108       0.01000904      -0.00296398
Sn       1.82641133       5.52476151      -1.10099594       0.00043885      -0.00521797       0.00077210
Sn       4.44293269       2.40167333       3.01557556      -0.00018749       0.01144501       0.00534631
Sn       4.44378676       3.32492754       6.16407481      -0.00060943      -0.00269467      -0.00743257
Sn       4.44102125       6.47383521       6.92949706       0.00078524       0.00242866       0.00855677
Sn       4.44133234       3.93336650       9.22609310       0.00009958      -0.00517123       0.00838233
Sn       1.82783478       6.84094050       5.19443742       0.00024466      -0.00300495      -0.00290580
8
Lattice="4.900549746952568 -0.0001123751328012644 0.00042029925880454584 0.0003923717764997262 5.401522746260956 -3.322158592809509 -0.0003747167478417377 -0.02930375128011863 6.0017612378521825" Properties=species:S:1:pos:R:3:forces:R:3 structure_index=2 total_energy=-24.188560485839844 stress="0.01908048801124096 1.6439120372524485e-05 2.1317795471986756e-05 1.62881551659666e-05 -0.030629359185695648 -0.0029053054749965668 2.1335692508728243e-05 -0.002905158791691065 -0.0355101153254509" pbc="T T T"
Li       1.32793081       1.60993783       0.75579062       0.00048974       0.03687732      -0.00084706
Li       3.77783877       0.59244876       5.22220327      -0.00056388       0.03019027      -0.01527147
Li       3.77592622       3.20294419       3.61566798       0.00081435      -0.02454727       0.02046869
Li       1.32955399       4.18612581       2.08644450      -0.00121841       0.00486694       0.00787462
Li       1.32794714       4.16163975      -0.80396096       0.00019209      -0.01916596       0.02524954
Sn       1.32501075       1.54230393       3.82983776       0.00218021      -0.01327146      -0.00636177
Sn       3.77964239       3.29542690       0.63973767      -0.00135870      -0.01335504      -0.01913132
Sn       3.77746854       0.50879773       2.16768570      -0.00053541      -0.00159477      -0.01198124
12
Lattice="4.7519575991210194 0.00029674330890344034 -0.004608196626027501 -0.00246706293523709 5.712107669598813 -1.5063481204514346 0.008761137039685197 -0.31386083579492463 8.93253960051547" Properties=species:S:1:pos:R:3:forces:R:3 structure_index=3 total_energy=-37.21980285644531 stress="0.013671886175870895 0.00023313643760047853 0.0002442237746436149 0.00023305237118620425 0.008472983725368977 0.011171028949320316 0.00024425762239843607 0.01117097120732069 0.01573270931839943" pbc="T T T"
Li       0.38463955       1.69978125       0.87744321       0.00103749      -0.04732258       0.01525021
Li       2.76359997      -0.09592602       2.93427022       0.00010688       0.00521066      -0.00683778
Li       2.76246757       2.73707003       1.88230291      -0.00035334       0.00506191       0.00059120
Li       0.39056195       4.03343718       6.11195730      -0.00012990      -0.00304601       0.00169947
Li       0.38920765       0.98390510       3.90205360      -0.00057567       0.04301497      -0.01575815
Li       2.76510035       5.19034897       4.41345233      -0.00013387       0.01091561       0.00811313
Li       2.76721209       2.86954329       7.81445401       0.00016346      -0.01334254      -0.00859454
Sn       2.76598693       2.30185547       4.87376498      -0.00020345       0.01915220       0.00486604
Sn       2.76034841       0.35965659      -0.06977474      -0.00021756      -0.01594711      -0.00466957
Sn       0.38808259       3.89363087       3.09176387      -0.00057732       0.00731454       0.04451594
Sn       0.39143826       1.17355806       6.85763246       0.00004710      -0.00062436       0.00187855
Sn       0.38337327       4.49919969       0.19513350       0.00083619      -0.01038727      -0.04105448
10
Lattice="4.34474464590064 -0.0012409731544090216 0.9280169422616885 0.0014753350404170212 4.413491590710643 0.002274638347191442 0.02490910815000533 -0.0060723168602884615 10.530222664414293" Properties=species:S:1:pos:R:3:forces:R:3 structure_index=4 total_energy=-30.718936920166016 stress="-0.03797696903347969 0.0015160477487370372 -0.009863337501883507 0.0015159852337092161 -0.025055158883333206 -0.0007020406192168593 -0.009863370098173618 -0.0007019746699370444 0.017515815794467926" pbc="T T T"
Li       4.09855581       0.40833188       9.12000748       0.00097859       0.00058375      -0.00899579
Li       3.65258981       2.61420839      11.21908046      -0.00670433       0.00004841       0.02419134
Li       1.04863704       2.62023833       2.12543530       0.00175212      -0.00041718      -0.00606589
Li       0.62076278       0.41144937       4.12358591       0.00510113       0.00104217      -0.02323607
Li       2.39419469       0.40942074       6.45418799      -0.00119195       0.00169388       0.00852289
Li       3.21714127       0.41241843       2.60390046      -0.00213007       0.00044782       0.00902071
Sn       1.90227288       2.61606829       8.76907688      -0.00055206      -0.00060659       0.00794632
Sn       2.83247726       2.61844221       4.41038081       0.00591585      -0.00079548      -0.03233097
Sn       1.46773194       0.40834499      10.80462966      -0.00435465      -0.00022933       0.02312801
Sn       0.21079150       2.61798039       6.04747894       0.00118536      -0.00176745      -0.00218055
20
Lattice="7.387728596248315 0.02904922684034386 -0.15648638429937106 0.13158688272028074 7.6019101362778425 -0.009767202429178204 -0.01764397406513381 0.017258885486452057 7.051980606521631" Properties=species:S:1:pos:R:3:forces:R:3 structure_index=5 total_energy=-58.998722076416016 stress="-0.006658447440713644 0.0005261140759103 -0.0007713391678407788 0.0005263341590762138 -0.005325453821569681 -0.00043205395922996104 -0.0007712652441114187 -0.0004322284075897187 -0.01491367258131504" pbc="T T T"
Li       6.33963859       6.58999757       0.51322229       0.00063054      -0.00561313       0.00354908
Li       6.42629668       6.57557157       4.05367262       0.00851648       0.00610181       0.00427766
Li       0.60669775       2.15239212       0.56521870       0.00745340       0.00250811       0.01116115
Li       3.27748305       0.57309783       3.92258061      -0.00172384      -0.02254094      -0.01425563
Li       3.88835512       5.88421768       2.18340017      -0.01077135      -0.00502512      -0.03140052
Li       7.27166182       4.38834465       2.29179104       0.00090426      -0.00178898       0.01706678
Li       4.13950644       6.00394227       5.90124503      -0.01038940       0.00751275       0.01494471
Li       5.71601691       1.36668477       2.38468141       0.00014399       0.00954429       0.01565157
Li       1.28846570       7.46298152       6.10679375       0.01727764      -0.00403612       0.03156854
Li       2.86974845       2.67466720       5.74832582       0.00366591      -0.00462201      -0.01478618
Li       2.69282718       2.98736012       2.38636039      -0.00110262       0.00633702       0.01009567
Li       6.94382990       4.23753943       5.73678107      -0.00454568      -0.01134013      -0.01382404
Li       4.77591030       3.49207011       0.59780323      -0.00492174      -0.00917158      -0.00573597
Sn       0.63520997       2.04057187       4.12397945       0.01241129      -0.02874258       0.00217683
Sn       1.11631090       7.28971341       2.18285210      -0.01036437       0.00013953      -0.02103838
Sn       4.89539731       3.83637880       3.90767121      -0.01725117       0.03837188      -0.01259651
Sn       3.49682155       0.68871006       0.71714596       0.02041731       0.04182093       0.01457326
Sn       1.92507058       5.20392580       4.37392728       0.01085217       0.01120096       0.01263671
Sn       5.65664842       1.27258550       5.73699625       0.00383581       0.00497327      -0.01111422
Sn       1.85109277       4.83044111       0.33468219      -0.02503866      -0.03562995      -0.01295051
18
Lattice="7.260151761208851 0.15268650638483144 -1.7612808168580802 -2.0278560815117883 5.998276286653649 -3.867217859192168 0.08181192621926438 0.04771220968231465 8.245667742753854" Properties=species:S:1:pos:R:3:forces:R:3 structure_index=6 total_energy=-52.1512336730957 stress="0.0030564714688807726 -0.00035910928272642195 -0.008776109665632248 -0.0003592207795009017 0.0008652121759951115 0.003957980778068304 -0.008776286616921425 0.003957921639084816 0.011465612798929214" pbc="T T T"
Li       4.90697456       3.52280132      -0.54148443       0.01306193      -0.01107305       0.01014531
Li       4.56152402       2.77607526       5.09208242      -0.01844120       0.03624693      -0.01420771
Li       4.84045964       4.65093476       2.26919341       0.01138506       0.00833576       0.02832811
Li       2.42145177       5.80199019       1.15919983       0.00668138       0.01229152      -0.00994656
Li       2.02776699       1.84787749       6.26459405      -0.00969207      -0.02340728       0.01472216
Li       2.02673552       2.97642545       0.67136674       0.00017828      -0.01438975      -0.01504806
Li       4.34363280       0.45955386      -0.52792016      -0.01745139      -0.02307136       0.01107894
Li       4.49677000       1.61620401       2.26860371       0.03148198      -0.00293556      -0.01869276
Li      -0.12520824       5.97986179      -2.92409394      -0.02122127       0.00523340      -0.00908654
Li       6.91058857       0.40109100       3.53428638       0.02135716      -0.01109636       0.03309231
Li      -0.15353069       4.27792289      -0.36479129      -0.00161286       0.02381806      -0.01777516
Li      -0.05897540       2.13273178       2.51745803       0.01237012       0.00533557       0.00366286
Sn       4.74508793       5.57001647      -3.14110958      -0.01137303       0.01583093       0.00254821
Sn       6.71965685       1.46623688      -1.96416630      -0.03800491       0.01808847       0.00338984
Sn       2.42154181       3.42943856       3.45619775       0.00486309      -0.03225975      -0.00561367
Sn      -0.29457661       3.12063528       5.22077701       0.00879619      -0.00360723      -0.00667446
Sn       2.40168230       4.72098417      -1.59986368      -0.01523756      -0.00100201      -0.02241804
Sn       0.04199749       4.96302898       2.47614829       0.02285907      -0.00233828       0.01249520
12
Lattice="4.318563768109 0.0032196570289570064 -0.7504272722813732 -0.13438978957515152 4.3924970103771654 -0.7574974207262934 0.00841614248427161 -0.053079470435770194 12.83147668584225" Properties=species:S:1:pos:R:3:forces:R:3 structure_index=7 total_energy=-37.25641632080078 stress="-0.008140027523040771 0.0004431121633388102 -0.0007145265117287636 0.00044311388046480715 -0.0006060076411813498 -0.0029621387366205454 -0.0007144839037209749 -0.0029620355926454067 -0.012757876887917519" pbc="T T T"
Li       2.17709857       4.03478122      -0.08797933      -0.00194687      -0.00189168      -0.01526425
Li       1.44169790       3.22450452       8.47270366       0.00181462       0.00073037       0.01128771
Li       1.17429568       0.68535868       6.92831527      -0.00703866      -0.00629978      -0.03614491
Li       0.77221134       2.54156421       4.63946577      -0.00213467      -0.00338320      -0.03065052
Li       2.57676373       2.18096410       2.21245742       0.00730190       0.00577817       0.03121632
Li       1.88339739       1.40796672      10.99748774      -0.00171157      -0.00152422      -0.01140898
Li       2.97846581       0.32453165       4.49803585       0.00150593       0.00302562       0.02524104
Sn       0.08960261       1.84137154       0.68791702       0.00558245       0.00899918       0.04525501
Sn       3.23228482       2.84980394       5.98537096       0.00426202       0.00517899       0.02292202
Sn       3.97303538       3.60362712      10.22650937       0.00049602       0.00079444       0.00938431
Sn       3.66273112       1.02354164       8.44956533      -0.00639629      -0.00727736      -0.04593417
Sn       0.51740216       0.01560353       3.14365796      -0.00173487      -0.00413053      -0.00590358
9
Lattice="4.264727311837598 0.0013313139160729007 1.4068235874893469 2.0936333299360332 6.697181416276277 0.8091312659871294 0.03670798139120648 -0.029585676817310804 7.056080569844151" Properties=species:S:1:pos:R:3:forces:R:3 structure_index=8 total_energy=-29.809417724609375 stress="-0.01910625770688057 -0.0010946105467155576 -0.0030379320960491896 -0.001094577950425446 -0.02716718800365925 0.0017373953014612198 -0.0030379139352589846 0.001737241051159799 -0.011003764346241951" pbc="T T T"
Li       1.50059487       2.37138329       6.10610325      -0.00941289       0.02206860       0.02351715
Li       0.83825258       0.03126066       0.93943930       0.00905482      -0.02158148      -0.02417001
Li       4.37449941       2.40885241       4.56174429       0.01077342       0.00503915      -0.03514308
Li       2.23022179      -0.00577991       3.88686616      -0.01150684      -0.00463394       0.03580330
Sn       2.89346015       2.11329300       1.88437482       0.01182201      -0.01209414      -0.04163248
Sn       5.04563971       4.56387173       2.51029400       0.01293253      -0.01003013      -0.03156447
Sn       3.71025474       0.29051576       6.56499608      -0.01120364       0.01190002       0.04149591
Sn       2.21620468       4.54800883       3.92503607      -0.00001725       0.00121057       0.00133079
Sn       3.65112413       4.53965300       6.74858212      -0.01244215       0.00812134       0.03036289
10
Lattice="4.362552138283413 0.0004392098237496812 -1.4340833812126694 -0.0038569528643062566 5.715230277760259 -0.00925576902097988 -0.0027134225452641473 0.004434417481259299 7.352156664656788" Properties=species:S:1:pos:R:3:forces:R:3 structure_index=9 total_energy=-26.486251831054688 stress="-0.008150315843522549 -0.0007519639912061393 -0.00054206169443205 -0.0007518280763179064 0.010924192145466805 -0.0004883987712673843 -0.0005418142536655068 -0.0004883186193183064 -0.0030227506067603827" pbc="T T T"
Li       3.12792646       3.90988399      -0.54356661       0.01024590      -0.00296920       0.03131601
Li       2.20364971       2.52243584       4.00313023       0.00113221       0.00653915       0.00093988
Li       1.32868186       5.32763269       1.33874892       0.00009963       0.00102219       0.00009706
Li       3.89564655       1.03670744       1.79564400      -0.00969036       0.00503970      -0.03185612
Li       1.33061278       2.47009590       1.34239693      -0.00023331       0.00078072      -0.00006661
Li       0.45525417       2.43619212       6.03514303      -0.00091416      -0.01032607      -0.00004519
Li       2.20310313       5.26391414       4.00264149       0.00242893      -0.01023454       0.00478125
Li       0.45164839       5.40945969       6.02539730      -0.00265112       0.00758215      -0.00509448
Sn       4.03890611       3.89678562       2.23323697      -0.00047236       0.00502669      -0.00134646
Sn       2.98517743       1.05099552      -0.98163287       0.00005465      -0.00246080       0.00127464
16
Lattice="6.4424648627317795 -0.004974302344969068 -0.0005002043353922017 0.002521595694271879 6.376278523522692 -0.0028477180564597587 0.001501280906939552 0.004361706434728603 9.157154229745213" Properties=species:S:1:pos:R:3:forces:R:3 structure_index=10 total_energy=-54.8658447265625 stress="0.02078402414917946 -0.00020644027972593904 7.243768050102517e-05 -0.00020644345204345882 0.019507281482219696 4.745771730085835e-05 7.241724961204454e-05 4.74466105515603e-05 0.004384633153676987" pbc="T T T"
Li       1.87929496       2.14562760       8.03496669       0.01093635       0.00031953      -0.00147855
Li       4.94258143       5.32384509       8.02813819      -0.01050164       0.00288403      -0.00052028
Li       0.18697492       3.74192696       5.74431635       0.00028822      -0.00328440      -0.00067080
Li       0.18690783       0.54881508       1.16717263       0.00083517       0.00044408      -0.00109279
Li       1.88244670       2.14902415       3.45674213       0.00882712      -0.00114924      -0.00218668
Li       4.94260970       5.31780153       3.45519906      -0.01045486       0.00130137      -0.00057574
Sn       3.41495977       3.73539586       1.16196415      -0.00284605      -0.00319746       0.00127338
Sn       5.10907770       2.13341925       8.02996297      -0.00202059       0.00952909       0.00413771
Sn       3.41272799       0.54757864       5.73673505      -0.00088764      -0.00080522       0.00854925
Sn       0.19247246       0.54892653       5.74265076      -0.00328837       0.00224271       0.00257423
Sn       3.41023603       0.54609733       1.16962477       0.00070186       0.00111754      -0.00451768
Sn       5.11211469       2.12831385       3.45409331      -0.00352055       0.01508886      -0.00301260
Sn       3.40508758       3.73566092       5.74477714       0.00703038      -0.00139014      -0.00148162
Sn       1.71169061       5.33492712       3.45025087       0.00356954      -0.00713362       0.00060935
Sn       1.71368013       5.33889101       8.03270766       0.00310331      -0.00742304      -0.00046971
Sn       0.19101884       3.74040838       1.16340604      -0.00177226      -0.00854409      -0.00113748
4
Lattice="4.321334283776193 0.0035053843113137823 -0.007780487413751682 -0.012400677913259495 4.431894135228253 -0.0018239417978610506 0.0023897914996211067 0.000638136431927065 4.43169325324746" Properties=species:S:1:pos:R:3:forces:R:3 structure_index=11 total_energy=-13.044815063476562 stress="0.08376926928758621 -0.009145163930952549 -0.006106771528720856 -0.009145217016339302 -0.04872772470116615 -0.0014139742124825716 -0.006106791086494923 -0.0014139729319140315 -0.04947042092680931" pbc="T T T"
Li       2.67846801       2.76706534       0.12353448       0.00099232      -0.00033728       0.00041635
Li       2.68625858       0.55057714       2.34147369       0.00050486       0.00033757      -0.00048865
Sn       0.52486432       0.54881113       0.12889719      -0.00076976       0.00025868      -0.00001679
Sn       0.51982755       2.76531202       2.34375566      -0.00072742      -0.00025897       0.00008908
8
Lattice="5.143579753640151 0.0007029273416861602 2.9717676162323423 1.7120386272290478 4.850024119933181 2.9689292159994713 -0.00034117802440162035 -0.00011505648038948407 5.939858198569614" Properties=species:S:1:pos:R:3:forces:R:3 structure_index=12 total_energy=-18.891185760498047 stress="-0.028490709140896797 -0.0016078413464128971 0.0007774598198011518 -0.0016079251654446125 -0.029466742649674416 -0.00012904741743113846 0.0007772637181915343 -0.0001291584485443309 -0.03180580958724022" pbc="T T T"
Li       1.60085593       4.19489554       7.70216371       0.00051534       0.00020455      -0.00446650
Li       0.74706022       1.77016190       3.24966879      -0.00296911      -0.00276331      -0.00482503
Li       3.31957500       1.77201773       7.70689093      -0.00019880       0.00057908      -0.00054476
Li       0.74718644       1.77152298       6.21747526      -0.00043326      -0.00102871       0.00091673
Li       3.31839898       1.77203277       4.73461793       0.00047350       0.00009595       0.00017473
Li       4.17408254       4.19791606       9.18829393      -0.00089897      -0.00047330      -0.00087630
Li       4.17336432       4.19706157       6.21842515      -0.00345831      -0.00166306      -0.00248351
Sn       1.59850489       4.19392822       4.72581474       0.00696960       0.00504881       0.01210463
6
Lattice="3.1968600260445594 0.00035571313439292313 0.0003173832177993835 -0.00037704147679058206 5.065736661110678 -1.3105111264026519 -0.001141541470716757 0.05274632103670271 7.790294979696934" Properties=species:S:1:pos:R:3:forces:R:3 structure_index=13 total_energy=-19.57190704345703 stress="0.030023792758584023 7.815772551111877e-05 -0.0003655859618447721 7.812997500877827e-05 -0.03206386789679527 -0.013591986149549484 -0.0003655664622783661 -0.01359201967716217 0.023281216621398926" pbc="T T T"
Li       3.19386610       2.69342226       0.28412810       0.00028676       0.00012093       0.00000110
Li       3.19366859       1.49191769       3.16075883       0.00010545       0.00749835      -0.01953179
Li       3.19269247       3.95387794       5.19010633       0.00030597      -0.00693577       0.02286858
Sn       1.59658586       0.15926313       0.93836296      -0.00082085       0.00250490      -0.00099206
Sn       1.59498410       4.00985339       2.57744877       0.00011866       0.03068390      -0.01050775
Sn       1.59485585       1.43830701       5.77911278       0.00000402      -0.03387230       0.00816192
10
Lattice="5.06644597680504 -0.011463464082163588 1.9109120210727855 2.537633835559619 5.036837435150753 0.9590169174072404 -0.08076502956721657 -0.0019646733563403614 7.908596317881549" Properties=species:S:1:pos:R:3:forces:R:3 structure_index=14 total_energy=-30.663541793823242 stress="0.021601231768727303 0.0014345747185871005 0.007857291027903557 0.0014346890384331346 0.0019131110748276114 -2.6060512027470395e-05 0.007857176475226879 -2.6212937882519327e-05 0.007469496689736843" pbc="T T T"
Li       5.13438200       3.85735152       3.03353844      -0.00130602      -0.04100413       0.01565693
Li       4.10333059       3.11515026       5.80769642       0.00871936       0.03945523      -0.01207814
Li       2.14803484       3.49264632       3.48816757      -0.01915941       0.00149380      -0.00680789
Li       2.10798353       0.96436907       7.43527953      -0.01983734      -0.00088102      -0.00645134
Li       4.13988415       1.33350057       1.84607399       0.01059988      -0.04111335      -0.01177903
Li       5.09921741       0.58680711       6.98345909      -0.00088570       0.04265311       0.01598899
Sn       5.92901424       3.28036854       8.13848556       0.00794749      -0.00576847      -0.01339206
Sn       2.89962326       3.68076980       8.48582649       0.00300558       0.00287448       0.01640750
Sn       2.94316736       0.77231613       4.52781264      -0.00056373      -0.00159250       0.01445859
Sn       0.90191610       1.17465693       2.26804631       0.01147989       0.00388284      -0.01200353
20
Lattice="7.247218567941094 0.022300625353613348 -0.16190053957620526 0.16021491742533442 7.0037887154235 0.38896925879132765 -0.06909141733427385 0.0562128726649469 8.043552893088677" Properties=species:S:1:pos:R:3:forces:R:3 structure_index=15 total_energy=-60.98369598388672 stress="-0.01588934287428856 0.006785527337342501 0.0027219499461352825 0.006785597652196884 -0.009596620686352253 0.0014872783794999123 0.0027219424955546856 0.001487218076363206 0.00028928794199600816" pbc="T T T"
Li       6.45451683       1.67679415       7.81965795       0.01574500      -0.00539527       0.02032270
Li       0.75912742       5.89260013       4.11606545       0.01810544       0.00708746       0.01626940
Li       7.25214309       3.83307404       1.73021869      -0.01779351       0.04134893      -0.01555685
Li       2.94665339       4.99338078       5.96223144       0.01597011      -0.01450022      -0.01459379
Li       1.40138484       0.86911431       1.75341976      -0.00329187      -0.03216140      -0.02377847
Li       5.02435035       4.33839353       3.82758296      -0.00991237      -0.00137646      -0.00922343
Li       2.94347172       5.06713354       1.82735067      -0.00728837       0.00695104       0.00362845
Li       7.22135481       3.71338713       5.85460974      -0.01453056       0.00608064      -0.00218637
Li       5.80845702       6.60868238       5.95185441      -0.00193192       0.00760262      -0.03049143
Li       4.25802149       2.25126633       1.77444863       0.00147772      -0.01063153       0.01013728
Li       3.50097004       0.22208634       7.65531851      -0.00698019       0.00213301       0.00071104
Li       1.39374049       1.05070731       5.75651769       0.01072064       0.00899011       0.01605036
Sn       5.04636754       4.45642099       7.90409072       0.01150533       0.00564247       0.00846672
Sn       2.00082444       3.03060554       7.99165316      -0.00628150      -0.02631084       0.00424636
Sn       4.32872379       2.28992651       5.80675551       0.00662963      -0.01665311      -0.00941890
Sn       5.86182817       6.54615591       2.02449183       0.01217403      -0.00682264       0.03483340
Sn       0.85401459       5.85444747       7.84293284      -0.01451739       0.04545612      -0.00073162
Sn       3.39501762       0.04435383       3.66447100      -0.02034965      -0.01486624       0.00006844
Sn       2.11755943       3.10580240       3.74535762       0.03112670       0.00361724      -0.01183696
Sn       6.62965345       1.79578439       3.61366187      -0.02057725      -0.00619194       0.00308370
6
Lattice="5.056749960224475 -2.2852898267269904e-05 -0.0010432489279988287 -0.003632466511082799 4.423636945980853 -2.443932712953308 -0.0022225884156419776 0.23431137425160034 5.0476589344733584" Properties=species:S:1:pos:R:3:forces:R:3 structure_index=16 total_energy=-17.83643913269043 stress="0.026064956560730934 -0.012284442782402039 -0.007171630859375 -0.012284421361982822 0.0051593417301774025 -0.015462721697986126 -0.007171673234552145 -0.015462717041373253 0.024045681580901146" pbc="T T T"
Li       2.66061042       0.14434050       1.57018443      -0.00147643       0.02276544       0.02278206
Li       0.12648278       3.40203419       3.39253389       0.00120890      -0.03240870      -0.00861366
Li       2.65687504       3.19073449       1.58588280      -0.00100545       0.03281040       0.00896226
Li       0.12900434       1.79076065       0.80506158       0.00122859      -0.02273838      -0.02337012
Sn       2.66078552       1.57807638      -0.92999837      -0.00634296       0.00696180       0.00340809
Sn       0.12856383       0.35710151       3.30491441       0.00638734      -0.00739057      -0.00316865
8
Lattice="4.984356934949976 0.004921613124528074 -0.0029723199656482993 -0.007638441565557606 5.56478689156634 -2.3218102821873376 0.005017795121847349 -0.027890705897897102 6.029636866570407" Properties=species:S:1:pos:R:3:forces:R:3 structure_index=17 total_energy=-26.082805633544922 stress="0.02426171861588955 0.0008501695701852441 8.270199759863317e-05 0.0008502493146806955 0.02350550889968872 0.004975148942321539 8.269859245046973e-05 0.004975220654159784 0.018921058624982834" pbc="T T T"
Li       0.57812301       4.92906566       1.28294518      -0.00085233       0.02661867      -0.03850507
Li       3.07228382       3.83353813       2.92595230       0.00011618      -0.02765636       0.03867238
Li       0.57782209       2.16138126      -0.57046470      -0.00009298       0.02606340      -0.03804287
Li       3.07271313       1.06700524       1.07061943       0.00042214      -0.02828806       0.04009674