phonopy:
  version: "2.37.1"
  frequency_unit_conversion_factor: 15.633302
  symmetry_tolerance: 1.00000e-05

space_group:
  type: "I4/mmm"
  number: 139
  Hall_symbol: "-I 4 2"

primitive_matrix:
- [  1.000000000000000,  0.000000000000000,  0.000000000000000 ]
- [  0.000000000000000,  1.000000000000000,  0.000000000000000 ]
- [  0.000000000000000,  0.000000000000000,  1.000000000000000 ]

supercell_matrix:
- [   2,   0,   0 ]
- [   0,   2,   0 ]
- [   0,   0,   2 ]

primitive_cell:
  lattice:
  - [     6.592657801428643,     0.000000000000000,     0.000000000000000 ] # a
  - [    -5.048570709782592,     4.239701969698825,     0.000000000000000 ] # b
  - [    -0.772043593930494,    -2.119850948965796,     6.194620033374576 ] # c
  points:
  - symbol: Li # 1
    coordinates: [  0.656898506820931,  0.656898505478598,  0.313797016984432 ]
    mass: 6.940000
  - symbol: Li # 2
    coordinates: [  0.343101494126177,  0.343101493390565,  0.686202983618606 ]
    mass: 6.940000
  - symbol: Li # 3
    coordinates: [  0.000000001880803,  0.327628003157541,  0.327628001910448 ]
    mass: 6.940000
  - symbol: Li # 4
    coordinates: [  0.343101488362830,  0.656898507274035,  0.000000000824727 ]
    mass: 6.940000
  - symbol: Li # 5
    coordinates: [  0.672371998063132,  0.999999999383051,  0.672371997388661 ]
    mass: 6.940000
  - symbol: Li # 6
    coordinates: [  0.656898508660144,  0.343101490779651,  0.000000000139739 ]
    mass: 6.940000
  - symbol: Li # 7
    coordinates: [  0.999999996369131,  0.672371994041516,  0.672371995803734 ]
    mass: 6.940000
  - symbol: Li # 8
    coordinates: [  0.327628001726926,  0.999999999950135,  0.327628001961505 ]
    mass: 6.940000
  - symbol: Sn # 9
    coordinates: [  0.000000003812724,  0.000000006378306,  0.000000001483146 ]
    mass: 118.710000
  reciprocal_lattice: # without 2pi
  - [     0.151683892918467,     0.180622804245925,     0.080715200952099 ] # a*
  - [     0.000000000000000,     0.235865635638308,     0.080715199454115 ] # b*
  - [     0.000000000000000,     0.000000000000000,     0.161430401640832 ] # c*

unit_cell:
  lattice:
  - [     6.592657801428643,     0.000000000000000,     0.000000000000000 ] # a
  - [    -5.048570709782592,     4.239701969698825,     0.000000000000000 ] # b
  - [    -0.772043593930494,    -2.119850948965796,     6.194620033374576 ] # c
  points:
  - symbol: Li # 1
    coordinates: [  0.656898506820931,  0.656898505478598,  0.313797016984432 ]
    mass: 6.940000
    reduced_to: 1
  - symbol: Li # 2
    coordinates: [  0.343101494126177,  0.343101493390565,  0.686202983618606 ]
    mass: 6.940000
    reduced_to: 2
  - symbol: Li # 3
    coordinates: [  0.000000001880803,  0.327628003157541,  0.327628001910448 ]
    mass: 6.940000
    reduced_to: 3
  - symbol: Li # 4
    coordinates: [  0.343101488362830,  0.656898507274035,  0.000000000824727 ]
    mass: 6.940000
    reduced_to: 4
  - symbol: Li # 5
    coordinates: [  0.672371998063132,  0.999999999383051,  0.672371997388661 ]
    mass: 6.940000
    reduced_to: 5
  - symbol: Li # 6
    coordinates: [  0.656898508660144,  0.343101490779651,  0.000000000139739 ]
    mass: 6.940000
    reduced_to: 6
  - symbol: Li # 7
    coordinates: [  0.999999996369131,  0.672371994041516,  0.672371995803734 ]
    mass: 6.940000
    reduced_to: 7
  - symbol: Li # 8
    coordinates: [  0.327628001726926,  0.999999999950135,  0.327628001961505 ]
    mass: 6.940000
    reduced_to: 8
  - symbol: Sn # 9
    coordinates: [  0.000000003812724,  0.000000006378306,  0.000000001483146 ]
    mass: 118.710000
    reduced_to: 9

supercell:
  lattice:
  - [    13.185315602857287,     0.000000000000000,     0.000000000000000 ] # a
  - [   -10.097141419565185,     8.479403939397651,     0.000000000000000 ] # b
  - [    -1.544087187860988,    -4.239701897931591,    12.389240066749153 ] # c
  points:
  - symbol: Li # 1
    coordinates: [  0.328449253410465,  0.328449252739299,  0.156898508492216 ]
    mass: 6.940000
    reduced_to: 1
  - symbol: Li # 2
    coordinates: [  0.828449253410465,  0.328449252739299,  0.156898508492216 ]
    mass: 6.940000
    reduced_to: 1
  - symbol: Li # 3
    coordinates: [  0.328449253410465,  0.828449252739299,  0.156898508492216 ]
    mass: 6.940000
    reduced_to: 1
  - symbol: Li # 4
    coordinates: [  0.828449253410465,  0.828449252739299,  0.156898508492216 ]
    mass: 6.940000
    reduced_to: 1
  - symbol: Li # 5
    coordinates: [  0.328449253410465,  0.328449252739299,  0.656898508492216 ]
    mass: 6.940000
    reduced_to: 1
  - symbol: Li # 6
    coordinates: [  0.828449253410465,  0.328449252739299,  0.656898508492216 ]
    mass: 6.940000
    reduced_to: 1
  - symbol: Li # 7
    coordinates: [  0.328449253410465,  0.828449252739299,  0.656898508492216 ]
    mass: 6.940000
    reduced_to: 1
  - symbol: Li # 8
    coordinates: [  0.828449253410465,  0.828449252739299,  0.656898508492216 ]
    mass: 6.940000
    reduced_to: 1
  - symbol: Li # 9
    coordinates: [  0.171550747063088,  0.171550746695282,  0.343101491809303 ]
    mass: 6.940000
    reduced_to: 9
  - symbol: Li # 10
    coordinates: [  0.671550747063088,  0.171550746695282,  0.343101491809303 ]
    mass: 6.940000
    reduced_to: 9
  - symbol: Li # 11
    coordinates: [  0.171550747063088,  0.671550746695282,  0.343101491809303 ]
    mass: 6.940000
    reduced_to: 9
  - symbol: Li # 12
    coordinates: [  0.671550747063088,  0.671550746695282,  0.343101491809303 ]
    mass: 6.940000
    reduced_to: 9
  - symbol: Li # 13
    coordinates: [  0.171550747063088,  0.171550746695282,  0.843101491809303 ]
    mass: 6.940000
    reduced_to: 9
  - symbol: Li # 14
    coordinates: [  0.671550747063088,  0.171550746695282,  0.843101491809303 ]
    mass: 6.940000
    reduced_to: 9
  - symbol: Li # 15
    coordinates: [  0.171550747063088,  0.671550746695282,  0.843101491809303 ]
    mass: 6.940000
    reduced_to: 9
  - symbol: Li # 16
    coordinates: [  0.671550747063088,  0.671550746695282,  0.843101491809303 ]
    mass: 6.940000
    reduced_to: 9
  - symbol: Li # 17
    coordinates: [  0.000000000940402,  0.163814001578771,  0.163814000955224 ]
    mass: 6.940000
    reduced_to: 17
  - symbol: Li # 18
    coordinates: [  0.500000000940402,  0.163814001578771,  0.163814000955224 ]
    mass: 6.940000
    reduced_to: 17
  - symbol: Li # 19
    coordinates: [  0.000000000940402,  0.663814001578771,  0.163814000955224 ]
    mass: 6.940000
    reduced_to: 17
  - symbol: Li # 20
    coordinates: [  0.500000000940402,  0.663814001578771,  0.163814000955224 ]
    mass: 6.940000
    reduced_to: 17
  - symbol: Li # 21
    coordinates: [  0.000000000940402,  0.163814001578771,  0.663814000955224 ]
    mass: 6.940000
    reduced_to: 17
  - symbol: Li # 22
    coordinates: [  0.500000000940402,  0.163814001578771,  0.663814000955224 ]
    mass: 6.940000
    reduced_to: 17
  - symbol: Li # 23
    coordinates: [  0.000000000940402,  0.663814001578771,  0.663814000955224 ]
    mass: 6.940000
    reduced_to: 17
  - symbol: Li # 24
    coordinates: [  0.500000000940402,  0.663814001578771,  0.663814000955224 ]
    mass: 6.940000
    reduced_to: 17
  - symbol: Li # 25
    coordinates: [  0.171550744181415,  0.328449253637018,  0.000000000412364 ]
    mass: 6.940000
    reduced_to: 25
  - symbol: Li # 26
    coordinates: [  0.671550744181415,  0.328449253637018,  0.000000000412364 ]
    mass: 6.940000
    reduced_to: 25
  - symbol: Li # 27
    coordinates: [  0.171550744181415,  0.828449253637018,  0.000000000412364 ]
    mass: 6.940000
    reduced_to: 25
  - symbol: Li # 28
    coordinates: [  0.671550744181415,  0.828449253637018,  0.000000000412364 ]
    mass: 6.940000
    reduced_to: 25
  - symbol: Li # 29
    coordinates: [  0.171550744181415,  0.328449253637018,  0.500000000412364 ]
    mass: 6.940000
    reduced_to: 25
  - symbol: Li # 30
    coordinates: [  0.671550744181415,  0.328449253637018,  0.500000000412364 ]
    mass: 6.940000
    reduced_to: 25
  - symbol: Li # 31
    coordinates: [  0.171550744181415,  0.828449253637018,  0.500000000412364 ]
    mass: 6.940000
    reduced_to: 25
  - symbol: Li # 32
    coordinates: [  0.671550744181415,  0.828449253637018,  0.500000000412364 ]
    mass: 6.940000
    reduced_to: 25
  - symbol: Li # 33
    coordinates: [  0.336185999031566,  0.499999999691525,  0.336185998694330 ]
    mass: 6.940000
    reduced_to: 33
  - symbol: Li # 34
    coordinates: [  0.836185999031566,  0.499999999691525,  0.336185998694330 ]
    mass: 6.940000
    reduced_to: 33
  - symbol: Li # 35
    coordinates: [  0.336185999031566,  0.999999999691525,  0.336185998694330 ]
    mass: 6.940000
    reduced_to: 33
  - symbol: Li # 36
    coordinates: [  0.836185999031566,  0.999999999691525,  0.336185998694330 ]
    mass: 6.940000
    reduced_to: 33
  - symbol: Li # 37
    coordinates: [  0.336185999031566,  0.499999999691525,  0.836185998694330 ]
    mass: 6.940000
    reduced_to: 33
  - symbol: Li # 38
    coordinates: [  0.836185999031566,  0.499999999691525,  0.836185998694330 ]
    mass: 6.940000
    reduced_to: 33
  - symbol: Li # 39
    coordinates: [  0.336185999031566,  0.999999999691525,  0.836185998694330 ]
    mass: 6.940000
    reduced_to: 33
  - symbol: Li # 40
    coordinates: [  0.836185999031566,  0.999999999691525,  0.836185998694330 ]
    mass: 6.940000
    reduced_to: 33
  - symbol: Li # 41
    coordinates: [  0.328449254330072,  0.171550745389826,  0.000000000069870 ]
    mass: 6.940000
    reduced_to: 41
  - symbol: Li # 42
    coordinates: [  0.828449254330072,  0.171550745389826,  0.000000000069870 ]
    mass: 6.940000
    reduced_to: 41
  - symbol: Li # 43
    coordinates: [  0.328449254330072,  0.671550745389826,  0.000000000069870 ]
    mass: 6.940000
    reduced_to: 41
  - symbol: Li # 44
    coordinates: [  0.828449254330072,  0.671550745389826,  0.000000000069870 ]
    mass: 6.940000
    reduced_to: 41
  - symbol: Li # 45
    coordinates: [  0.328449254330072,  0.171550745389826,  0.500000000069870 ]
    mass: 6.940000
    reduced_to: 41
  - symbol: Li # 46
    coordinates: [  0.828449254330072,  0.171550745389826,  0.500000000069870 ]
    mass: 6.940000
    reduced_to: 41
  - symbol: Li # 47
    coordinates: [  0.328449254330072,  0.671550745389826,  0.500000000069870 ]
    mass: 6.940000
    reduced_to: 41
  - symbol: Li # 48
    coordinates: [  0.828449254330072,  0.671550745389826,  0.500000000069870 ]
    mass: 6.940000
    reduced_to: 41
  - symbol: Li # 49
    coordinates: [  0.499999998184565,  0.336185997020758,  0.336185997901867 ]
    mass: 6.940000
    reduced_to: 49
  - symbol: Li # 50
    coordinates: [  0.999999998184565,  0.336185997020758,  0.336185997901867 ]
    mass: 6.940000
    reduced_to: 49
  - symbol: Li # 51
    coordinates: [  0.499999998184565,  0.836185997020758,  0.336185997901867 ]
    mass: 6.940000
    reduced_to: 49
  - symbol: Li # 52
    coordinates: [  0.999999998184565,  0.836185997020758,  0.336185997901867 ]
    mass: 6.940000
    reduced_to: 49
  - symbol: Li # 53
    coordinates: [  0.499999998184565,  0.336185997020758,  0.836185997901867 ]
    mass: 6.940000
    reduced_to: 49
  - symbol: Li # 54
    coordinates: [  0.999999998184565,  0.336185997020758,  0.836185997901867 ]
    mass: 6.940000
    reduced_to: 49
  - symbol: Li # 55
    coordinates: [  0.499999998184565,  0.836185997020758,  0.836185997901867 ]
    mass: 6.940000
    reduced_to: 49
  - symbol: Li # 56
    coordinates: [  0.999999998184565,  0.836185997020758,  0.836185997901867 ]
    mass: 6.940000
    reduced_to: 49
  - symbol: Li # 57
    coordinates: [  0.163814000863463,  0.499999999975067,  0.163814000980752 ]
    mass: 6.940000
    reduced_to: 57
  - symbol: Li # 58
    coordinates: [  0.663814000863463,  0.499999999975067,  0.163814000980752 ]
    mass: 6.940000
    reduced_to: 57
  - symbol: Li # 59
    coordinates: [  0.163814000863463,  0.999999999975067,  0.163814000980752 ]
    mass: 6.940000
    reduced_to: 57
  - symbol: Li # 60
    coordinates: [  0.663814000863463,  0.999999999975067,  0.163814000980752 ]
    mass: 6.940000
    reduced_to: 57
  - symbol: Li # 61
    coordinates: [  0.163814000863463,  0.499999999975067,  0.663814000980752 ]
    mass: 6.940000
    reduced_to: 57
  - symbol: Li # 62
    coordinates: [  0.663814000863463,  0.499999999975067,  0.663814000980752 ]
    mass: 6.940000
    reduced_to: 57
  - symbol: Li # 63
    coordinates: [  0.163814000863463,  0.999999999975067,  0.663814000980752 ]
    mass: 6.940000
    reduced_to: 57
  - symbol: Li # 64
    coordinates: [  0.663814000863463,  0.999999999975067,  0.663814000980752 ]
    mass: 6.940000
    reduced_to: 57
  - symbol: Sn # 65
    coordinates: [  0.000000001906362,  0.000000003189153,  0.000000000741573 ]
    mass: 118.710000
    reduced_to: 65
  - symbol: Sn # 66
    coordinates: [  0.500000001906362,  0.000000003189153,  0.000000000741573 ]
    mass: 118.710000
    reduced_to: 65
  - symbol: Sn # 67
    coordinates: [  0.000000001906362,  0.500000003189153,  0.000000000741573 ]
    mass: 118.710000
    reduced_to: 65
  - symbol: Sn # 68
    coordinates: [  0.500000001906362,  0.500000003189153,  0.000000000741573 ]
    mass: 118.710000
    reduced_to: 65
  - symbol: Sn # 69
    coordinates: [  0.000000001906362,  0.000000003189153,  0.500000000741573 ]
    mass: 118.710000
    reduced_to: 65
  - symbol: Sn # 70
    coordinates: [  0.500000001906362,  0.000000003189153,  0.500000000741573 ]
    mass: 118.710000
    reduced_to: 65
  - symbol: Sn # 71
    coordinates: [  0.000000001906362,  0.500000003189153,  0.500000000741573 ]
    mass: 118.710000
    reduced_to: 65
  - symbol: Sn # 72
    coordinates: [  0.500000001906362,  0.500000003189153,  0.500000000741573 ]
    mass: 118.710000
    reduced_to: 65

displacements:
- atom:    1
  displacement:
    [   0.0074736422840871,  0.0021512084248435, -0.0062862527249855 ]
  forces:
  - [  -0.0118106659501791, -0.0036196245346218,  0.0006111301481724 ]
  - [  -0.0000010738997389, -0.0000045015049182, -0.0093027912080288 ]
  - [   0.0000100555744211,  0.0000020232560018, -0.0093029774725437 ]
  - [  -0.0001270066131838, -0.0005564498715103, -0.0095944665372372 ]
  - [  -0.0000045804772526,  0.0000230483710766, -0.0093701779842377 ]
  - [   0.0000004635658115, -0.0000001024454832, -0.0093101374804974 ]
  - [   0.0000053399708122, -0.0000026607885957, -0.0093149635940790 ]
  - [  -0.0000183815136552, -0.0000151684507728, -0.0093419756740332 ]
  - [   0.0004572996404022,  0.0009631700813770,  0.0082958787679672 ]
  - [   0.0000113574787974, -0.0000039339065552,  0.0093003865331411 ]
  - [  -0.0000067804940045,  0.0000020088627934,  0.0093188323080540 ]
  - [   0.0000490047968924, -0.0001525301486254,  0.0091521590948105 ]
  - [   0.0002657811855897,  0.0000807093456388,  0.0096393339335918 ]
  - [   0.0000234171748161,  0.0000020712614059,  0.0093094538897276 ]
  - [   0.0000036144629121, -0.0000114915892482,  0.0093090832233429 ]
  - [  -0.0003756247460842, -0.0004463726654649,  0.0097820106893778 ]
  - [  -0.0014873445034027,  0.0028718141838908,  0.0041836816817522 ]
  - [  -0.0044987914152443,  0.0017322939820588,  0.0039282739162445 ]
  - [  -0.0037872854154557,  0.0014127672184259,  0.0041104769334197 ]
  - [  -0.0038178768008947,  0.0010078335180879,  0.0041628940962255 ]
  - [  -0.0038465734105557,  0.0014052598271519,  0.0041031865403056 ]
  - [  -0.0038403887301683,  0.0013996548950672,  0.0040937177836895 ]
  - [  -0.0038445468526334,  0.0013996229972690,  0.0041006682440639 ]
  - [  -0.0038557425141335,  0.0014004902914166,  0.0041367933154106 ]
  - [   0.0082502216100693, -0.0034514134749770,  0.0005214724224061 ]
  - [   0.0086980666965246, -0.0031931716948748,  0.0000609311500739 ]
  - [   0.0087395608425140, -0.0031472779810429,  0.0000308562703140 ]
  - [   0.0093968063592911, -0.0036158952862024, -0.0003242007805966 ]
  - [   0.0087535344064236, -0.0032193912193179,  0.0001139333180618 ]
  - [   0.0087280198931694, -0.0031815022230148,  0.0000276323407888 ]
  - [   0.0087461434304714, -0.0031835855916142,  0.0000016116716779 ]
  - [   0.0087791848927736, -0.0031551895663142,  0.0000763754360378 ]
  - [  -0.0016796772833914,  0.0005443381960504, -0.0070418389514089 ]
  - [  -0.0038487198762596,  0.0013963324017823, -0.0041020023636520 ]
  - [  -0.0038376767188311,  0.0013859192840755, -0.0041039916686714 ]
  - [  -0.0038847867399454,  0.0013841367326677, -0.0040678773075342 ]
  - [  -0.0034151766449213,  0.0014955876395106, -0.0037743966095150 ]
  - [  -0.0038626897148788,  0.0014055538922548, -0.0041175363585353 ]
  - [  -0.0037284754216671,  0.0013495474122465, -0.0042396504431963 ]
  - [  -0.0038762977346778,  0.0013276771642268, -0.0040287026204169 ]
  - [  -0.0047910064458847,  0.0012875925749540, -0.0044962144456804 ]
  - [  -0.0088342241942883,  0.0031972806900740, -0.0000542686429981 ]
  - [  -0.0087978299707174,  0.0032346276566386, -0.0000243199174292 ]
  - [  -0.0090952962636948,  0.0031215734779835, -0.0001230289490195 ]
  - [  -0.0087656211107969,  0.0032040076330304,  0.0000301824184135 ]
  - [  -0.0087329633533955,  0.0031815171241760, -0.0000159090413945 ]
  - [  -0.0087258759886026,  0.0031741233542562, -0.0000319769605994 ]
  - [  -0.0087730400264263,  0.0031933225691319, -0.0000082886690507 ]
  - [   0.0035417824983597, -0.0013623307459056, -0.0043012560345232 ]
  - [   0.0037907361984253, -0.0014361119829118, -0.0041224975138903 ]
  - [   0.0038349553942680, -0.0013573747128248, -0.0041203731670976 ]
  - [   0.0038147624582052, -0.0014206245541573, -0.0041101090610027 ]
  - [   0.0036536697298288, -0.0012715146876872, -0.0039160451851785 ]
  - [   0.0038328915834427, -0.0014038425870240, -0.0040761777199805 ]
  - [   0.0038755964487791, -0.0014124242588878, -0.0040985578671098 ]
  - [   0.0040221903473139, -0.0013634772039950, -0.0041780136525631 ]
  - [   0.0033067725598812, -0.0011110886698589,  0.0041121765971184 ]
  - [   0.0060087265446782, -0.0002050260081887,  0.0040843361057341 ]
  - [   0.0038852058351040, -0.0014085425063968,  0.0041053374297917 ]
  - [   0.0039134956896305, -0.0013937074691057,  0.0041329795494676 ]
  - [   0.0038504926487803, -0.0014030118472874,  0.0041016722097993 ]
  - [   0.0038596410304308, -0.0014099851250648,  0.0041149873286486 ]
  - [   0.0038424632512033, -0.0013953745365143,  0.0041312039829791 ]
  - [   0.0038552880287170, -0.0014033233746886,  0.0041082031093538 ]
  - [   0.0002778172492981, -0.0000147372484207, -0.0000257557512668 ]
  - [   0.0000102557241917, -0.0000034719705582, -0.0000455286608485 ]
  - [   0.0000445507466793, -0.0000165849924088,  0.0000264140035142 ]
  - [   0.0018212683498859,  0.0042566806077957, -0.0034410310909152 ]
  - [  -0.0000299289822578, -0.0000524744391441,  0.0000228228745982 ]
  - [  -0.0000102594494820,  0.0000096969306469, -0.0000000568106771 ]
  - [  -0.0000123903155327, -0.0000015506520867, -0.0000005057081580 ]
  - [   0.0000642724335194, -0.0000454969704151,  0.0011865207925439 ]
- atom:    1
  displacement:
    [  -0.0074736422840871, -0.0021512084248435,  0.0062862527249855 ]
  forces:
  - [   0.0117462556809187,  0.0034867175854743, -0.0190906152129173 ]
  - [   0.0000013140112287,  0.0000058566647567, -0.0093138832598925 ]
  - [  -0.0000091869469543, -0.0000020112336188, -0.0093142408877611 ]
  - [   0.0001233943621628,  0.0005542891449295, -0.0090279914438725 ]
  - [   0.0000045632477850, -0.0000223424285650, -0.0092479307204485 ]
  - [  -0.0000005199108273,  0.0000002821907401, -0.0093087852001190 ]
  - [  -0.0000054440461099,  0.0000012451782823, -0.0093030594289303 ]
  - [   0.0000178059563041,  0.0000134715810418, -0.0092769991606474 ]
  - [  -0.0004611336626112, -0.0009844033047557,  0.0103412233293056 ]
  - [  -0.0000105989165604,  0.0000040279701352,  0.0093177258968353 ]
  - [   0.0000071043614298, -0.0000029755756259,  0.0092980079352856 ]
  - [  -0.0000514765270054,  0.0001451959833503,  0.0094571784138680 ]
  - [  -0.0002617683494464, -0.0000729896128178,  0.0089707728475332 ]
  - [  -0.0000237440690398, -0.0000014631077647,  0.0093078557401896 ]
  - [  -0.0000034859403968,  0.0000119507312775,  0.0093077570199966 ]
  - [   0.0003778906539083,  0.0004620775580406,  0.0088198371231556 ]
  - [  -0.0062684081494808, -0.0000879503786564,  0.0040178052149713 ]
  - [  -0.0032179476693273,  0.0010784841142595,  0.0042826710268855 ]
  - [  -0.0039278264157474,  0.0013982712989673,  0.0041032708249986 ]
  - [  -0.0038902699016035,  0.0017992076463997,  0.0040447236970067 ]
  - [  -0.0038708169013262,  0.0014057820662856,  0.0041115377098322 ]
  - [  -0.0038772933185101,  0.0014116819947958,  0.0041205780580640 ]
  - [  -0.0038724350742996,  0.0014112078351900,  0.0041143805719912 ]
  - [  -0.0038613583892584,  0.0014108018949628,  0.0040772682987154 ]
  - [   0.0092593301087618, -0.0029263179749250, -0.0005079965339974 ]
  - [   0.0087924413383007, -0.0031776120886207, -0.0000607012116234 ]
  - [   0.0087556317448616, -0.0032235365360975, -0.0000309839633701 ]
  - [   0.0080980993807316, -0.0027645640075207,  0.0003245003172196 ]
  - [   0.0087415259331465, -0.0031506903469563, -0.0001158794329967 ]
  - [   0.0087660271674395, -0.0031889127567410, -0.0000276709906757 ]
  - [   0.0087482742965221, -0.0031867502257228, -0.0000021003804704 ]
  - [   0.0087138041853905, -0.0032162861898541, -0.0000771668273956 ]
  - [  -0.0060674855485559,  0.0022894102148712, -0.0011240628082305 ]
  - [  -0.0038682171143591,  0.0014145276509225, -0.0041112951003015 ]
  - [  -0.0038796043954790,  0.0014232080429792, -0.0041085975244641 ]
  - [  -0.0038302855100483,  0.0014270858373493, -0.0041459961794317 ]
  - [  -0.0042948722839355,  0.0013106069527566, -0.0044250255450606 ]
  - [  -0.0038554011844099,  0.0014049760065973, -0.0040954602882266 ]
  - [  -0.0039868634194136,  0.0014598648995161, -0.0039751324802637 ]
  - [  -0.0038445838727057,  0.0014836713671684, -0.0041864514350891 ]
  - [  -0.0126376729458570,  0.0050381915643811,  0.0044209286570549 ]
  - [  -0.0086590610444546,  0.0031748246401548,  0.0000538831700396 ]
  - [  -0.0086956750601530,  0.0031356103718281,  0.0000239277178480 ]
  - [  -0.0083958394825459,  0.0032453900203109,  0.0001250821369467 ]
  - [  -0.0087279491126537,  0.0031670574098825, -0.0000296554062515 ]
  - [  -0.0087627526372671,  0.0031901802867651,  0.0000154860899784 ]
  - [  -0.0087693668901920,  0.0031964564695954,  0.0000332266790792 ]
  - [  -0.0087213143706322,  0.0031771585345268,  0.0000080936151790 ]
  - [   0.0041670259088278, -0.0014430340379477, -0.0039246934466064 ]
  - [   0.0039252862334251, -0.0013729822821915, -0.0040900874882936 ]
  - [   0.0038821678608656, -0.0014534993097186, -0.0040927231311798 ]
  - [   0.0039026122540236, -0.0013899262994528, -0.0041025895625353 ]
  - [   0.0040445807389915, -0.0015490530058742, -0.0042683249339461 ]
  - [   0.0038844961673021, -0.0014064069837332, -0.0041349916718900 ]
  - [   0.0038418555632234, -0.0013979896903038, -0.0041137691587210 ]
  - [   0.0036934576928616, -0.0014403141103685, -0.0040272241458297 ]
  - [   0.0044060223735869, -0.0016987827839330,  0.0041018873453140 ]
  - [   0.0017364853993058, -0.0025841691531241,  0.0041346875950694 ]
  - [   0.0038291104137897, -0.0013887104578316,  0.0041080126538873 ]
  - [   0.0038017462939024, -0.0014186901971698,  0.0040803495794535 ]
  - [   0.0038670795038342, -0.0014071711339056,  0.0041128695011139 ]
  - [   0.0038572121411562, -0.0014006039127707,  0.0040991818532348 ]
  - [   0.0038761887699366, -0.0014160079881549,  0.0040844106115401 ]
  - [   0.0038624685257673, -0.0014078328385949,  0.0041062422096729 ]
  - [  -0.0002679266035557,  0.0000369995832443,  0.0000403541816922 ]
  - [  -0.0000102967023849,  0.0000036507844925,  0.0000438093884441 ]
  - [  -0.0000428892672062,  0.0000151619315147, -0.0000270432137768 ]
  - [  -0.0017867647111416, -0.0041012242436409,  0.0033123707398772 ]
  - [   0.0000307746231556,  0.0000538267195225, -0.0000239538494498 ]
  - [   0.0000099819153547, -0.0000084936618805, -0.0000005569308996 ]
  - [   0.0000135973095894, -0.0000000447034836, -0.0000009884824976 ]
  - [  -0.0000671576708555,  0.0000453852117062, -0.0012071998789907 ]
- atom:   17
  displacement:
    [   0.0100000000000000,  0.0000000000000000,  0.0000000000000000 ]
  forces:
  - [   0.0026177084073424,  0.0015227072872221, -0.0095104873180389 ]
  - [  -0.0009147609234788,  0.0004029679403175, -0.0092365033924580 ]
  - [   0.0000853895617183, -0.0000074622644206, -0.0093199722468853 ]
  - [   0.0003600732306950, -0.0011131935752928, -0.0093141719698906 ]
  - [  -0.0000045134220272,  0.0000050105154514, -0.0093323681503534 ]
  - [   0.0000096235889941,  0.0000013234093785, -0.0093268100172281 ]
  - [   0.0000056731514633, -0.0000076098367572, -0.0093265417963266 ]
  - [   0.0000037704594433, -0.0000053346157074, -0.0093107651919127 ]
  - [   0.0014250134117901, -0.0005764719098806,  0.0113146193325520 ]
  - [  -0.0000350021291524, -0.0000078603625298,  0.0093696005642414 ]
  - [  -0.0000049227382988,  0.0000102557241917,  0.0093437358736992 ]
  - [  -0.0000457533169538, -0.0000078808516264,  0.0093221794813871 ]
  - [  -0.0000487432007503, -0.0003254171460867,  0.0094527006149292 ]
  - [   0.0000781128183007, -0.0000344878062606,  0.0094305835664272 ]
  - [   0.0000100610777736, -0.0000042458996177,  0.0092920623719692 ]
  - [   0.0003024963662028,  0.0003585787490010,  0.0095283091068268 ]
  - [  -0.0192174967378378,  0.0024525076150894,  0.0065229446627200 ]
  - [  -0.0038987402804196,  0.0014036828652024,  0.0041118012741208 ]
  - [  -0.0038775138091296,  0.0014279733877629,  0.0041101826354861 ]
  - [  -0.0039132824167609,  0.0005842614918947,  0.0041420841589570 ]
  - [  -0.0038594994693995,  0.0014030970633030,  0.0041170027107000 ]
  - [  -0.0038589294999838,  0.0014055659994483,  0.0041079195216298 ]
  - [  -0.0038418050389737,  0.0013994143810123,  0.0040864339098334 ]
  - [  -0.0038557015359402,  0.0014073327183723,  0.0041057495400310 ]
  - [   0.0090213343501091, -0.0025814948603511, -0.0005357157206163 ]
  - [   0.0087341628968716, -0.0031777881085873, -0.0000204019452212 ]
  - [   0.0087197199463844, -0.0031788386404514,  0.0000163514196174 ]
  - [   0.0088625848293304, -0.0024623069912195,  0.0006642957450822 ]
  - [   0.0088906306773424, -0.0031674308702350, -0.0001342442701571 ]
  - [   0.0087576434016228, -0.0031820246949792, -0.0000063693173615 ]
  - [   0.0087536647915840, -0.0031948620453477, -0.0000056476233112 ]
  - [   0.0087336301803589, -0.0031567048281431, -0.0000170532148331 ]
  - [  -0.0037636102642864,  0.0018858818802983, -0.0036012283526361 ]
  - [  -0.0038442907389253,  0.0014000770170242, -0.0040845382027328 ]
  - [  -0.0038442090153694,  0.0013995682820678, -0.0040928805246949 ]
  - [  -0.0037595052272081,  0.0019051125273108, -0.0046097524464130 ]
  - [  -0.0038710702210665,  0.0014504343271255, -0.0041132057085633 ]
  - [  -0.0038701565936208,  0.0014081289991736, -0.0041087907738984 ]
  - [  -0.0038683973252773,  0.0014098668470979, -0.0041127484291792 ]
  - [  -0.0033310414291918,  0.0012950859963894, -0.0040180734358728 ]
  - [  -0.0089672915637493,  0.0030518313869834, -0.0000613137672190 ]
  - [  -0.0065619535744190,  0.0023393258452415,  0.0020529103931040 ]
  - [  -0.0087784659117460,  0.0031735450029373, -0.0000316810328513 ]
  - [  -0.0088568199425936,  0.0035608075559139, -0.0001602770789759 ]
  - [  -0.0086758155375719,  0.0031539667397738,  0.0001210611080751 ]
  - [  -0.0087530799210072,  0.0031840940937400, -0.0000025442132028 ]
  - [  -0.0087293423712254,  0.0031702127307653, -0.0000251252204180 ]
  - [  -0.0087452773004770,  0.0031835399568081,  0.0000135513255373 ]
  - [   0.0037150736898184, -0.0014493293128908, -0.0041821072809398 ]
  - [   0.0048409271985292, -0.0017324672080576, -0.0049480199813843 ]
  - [   0.0038636773824692, -0.0014292215928435, -0.0040861787274480 ]
  - [   0.0038190800696611, -0.0013274345546961, -0.0041539035737514 ]
  - [   0.0038578053936362, -0.0013965838588774, -0.0041168876923621 ]
  - [   0.0038534402847290, -0.0013779085129499, -0.0041402624920011 ]
  - [   0.0038010505959392, -0.0014417101629078, -0.0041946303099394 ]
  - [   0.0038364455103874, -0.0014668693765998, -0.0042498307302594 ]
  - [   0.0044657038524747, -0.0025683226995170,  0.0041007157415152 ]
  - [   0.0039905309677124, -0.0014115110971034,  0.0041134059429169 ]
  - [   0.0031178612262011, -0.0010524289682508,  0.0040162308141589 ]
  - [   0.0063338093459606, -0.0003322614356875,  0.0041091237217188 ]
  - [   0.0038479855284095, -0.0014012465253472,  0.0040939524769783 ]
  - [   0.0038545913994312, -0.0013980465009809,  0.0041120639070868 ]
  - [   0.0038554826751351, -0.0014100652188063,  0.0041115120984614 ]
  - [   0.0038478001952171, -0.0014015473425388,  0.0040846290066838 ]
  - [   0.0048888698220253, -0.0019678249955177, -0.0056995423510671 ]
  - [   0.0002026781439781,  0.0000991299748421,  0.0000907946159714 ]
  - [   0.0000482350587845, -0.0001397281885147,  0.0000939389647101 ]
  - [   0.0001069270074368,  0.0000269711017609,  0.0000060265883803 ]
  - [   0.0000315271317959,  0.0000085476785898,  0.0000292725162581 ]
  - [  -0.0000134259462357,  0.0000053755939007,  0.0000072419643402 ]
  - [   0.0000269860029221, -0.0000205449759960, -0.0000988375395536 ]
  - [   0.0000326577574015,  0.0000202469527721,  0.0000945143401623 ]
- atom:   17
  displacement:
    [  -0.0100000000000000,  0.0000000000000000,  0.0000000000000000 ]
  forces:
  - [  -0.0025727748870850, -0.0014872229658067, -0.0091060325503349 ]
  - [   0.0009089568047784, -0.0004012589051854, -0.0093807429075241 ]
  - [  -0.0000874471443240,  0.0000065234066824, -0.0092970114201307 ]
  - [  -0.0003658852656372,  0.0011099674738944, -0.0093013066798449 ]
  - [   0.0000044982880354, -0.0000044368207455, -0.0092864483594894 ]