# Thermal properties / unit cell (natom)

unit:
  temperature:   K
  free_energy:   kJ/mol
  entropy:       J/K/mol
  heat_capacity: J/K/mol

natom: 9    
cutoff_frequency: 0.00000
num_modes: 270000
num_integrated_modes: 268782

zero_point_energy:      34.8868927

thermal_properties:
- temperature:         0.0000000
  free_energy:        34.8868927
  entropy:             0.0000000
  heat_capacity:       0.0000000
  energy:             34.8868927

- temperature:        10.0000000
  free_energy:        34.8840386
  entropy:             0.9199952
  heat_capacity:       2.2157509
  energy:             34.8932386

- temperature:        20.0000000
  free_energy:        34.8585712
  entropy:             4.6077122
  heat_capacity:       9.6121267
  energy:             34.9507254

- temperature:        30.0000000
  free_energy:        34.7863230
  entropy:            10.0260624
  heat_capacity:      17.8064505
  energy:             35.0871049

- temperature:        40.0000000
  free_energy:        34.6547918
  entropy:            16.4422923
  heat_capacity:      27.6388801
  energy:             35.3124835

- temperature:        50.0000000
  free_energy:        34.4541068
  entropy:            23.8669783
  heat_capacity:      39.7046794
  energy:             35.6474558

- temperature:        60.0000000
  free_energy:        34.1740654
  entropy:            32.3032304
  heat_capacity:      53.4637118
  energy:             36.1122592

- temperature:        70.0000000
  free_energy:        33.8050601
  entropy:            41.6316274
  heat_capacity:      67.9894808
  energy:             36.7192741

- temperature:        80.0000000
  free_energy:        33.3391054
  entropy:            51.6577382
  heat_capacity:      82.4268495
  energy:             37.4717244

- temperature:        90.0000000
  free_energy:        32.7702918
  entropy:            62.1685676
  heat_capacity:      96.1685909
  energy:             38.3654629

- temperature:       100.0000000
  free_energy:        32.0947753
  entropy:            72.9681390
  heat_capacity:     108.8648914
  energy:             39.3915893

- temperature:       110.0000000
  free_energy:        31.3105150
  entropy:            83.8931355
  heat_capacity:     120.3652619
  energy:             40.5387599

- temperature:       120.0000000
  free_energy:        30.4169236
  entropy:            94.8159385
  heat_capacity:     130.6506206
  energy:             41.7948362

- temperature:       130.0000000
  free_energy:        29.4145236
  entropy:           105.6414270
  heat_capacity:     139.7782442
  energy:             43.1479091

- temperature:       140.0000000
  free_energy:        28.3046488
  entropy:           116.3015028
  heat_capacity:     147.8437372
  energy:             44.5868592

- temperature:       150.0000000
  free_energy:        27.0892027
  entropy:           126.7493858
  heat_capacity:     154.9572314
  energy:             46.1016105

- temperature:       160.0000000
  free_energy:        25.7704714
  entropy:           136.9545596
  heat_capacity:     161.2296468
  energy:             47.6832010

- temperature:       170.0000000
  free_energy:        24.3509828
  entropy:           146.8986259
  heat_capacity:     166.7654480
  energy:             49.3237492

- temperature:       180.0000000
  free_energy:        22.8334017
  entropy:           156.5720539
  heat_capacity:     171.6593408
  energy:             51.0163714

- temperature:       190.0000000
  free_energy:        21.2204548
  entropy:           165.9716967
  heat_capacity:     175.9952330
  energy:             52.7550772

- temperature:       200.0000000
  free_energy:        19.5148762
  entropy:           175.0989266
  heat_capacity:     179.8464206
  energy:             54.5346615

- temperature:       210.0000000
  free_energy:        17.7193695
  entropy:           183.9582521
  heat_capacity:     183.2763777
  energy:             56.3506025

- temperature:       220.0000000
  free_energy:        15.8365822
  entropy:           192.5562996
  heat_capacity:     186.3397957
  energy:             58.1989681

- temperature:       230.0000000
  free_energy:        13.8690879
  entropy:           200.9010700
  heat_capacity:     189.0836742
  energy:             60.0763340

- temperature:       240.0000000
  free_energy:        11.8193757
  entropy:           209.0013998
  heat_capacity:     191.5483643
  energy:             61.9797116

- temperature:       250.0000000
  free_energy:         9.6898438
  entropy:           216.8665717
  heat_capacity:     193.7685154
  energy:             63.9064867

- temperature:       260.0000000
  free_energy:         7.4827966
  entropy:           224.5060382
  heat_capacity:     195.7739117
  energy:             65.8543665

- temperature:       270.0000000
  free_energy:         5.2004439
  entropy:           231.9292260
  heat_capacity:     197.5901956
  energy:             67.8213350

- temperature:       280.0000000
  free_energy:         2.8449021
  entropy:           239.1454002
  heat_capacity:     199.2394876
  energy:             69.8056141

- temperature:       290.0000000
  free_energy:         0.4181959
  entropy:           246.1635731
  heat_capacity:     200.7409132
  energy:             71.8056321

- temperature:       300.0000000
  free_energy:        -2.0777384
  entropy:           252.9924447
  heat_capacity:     202.1110491
  energy:             73.8199950

- temperature:       310.0000000
  free_energy:        -4.6410499
  entropy:           259.6403663
  heat_capacity:     203.3642993
  energy:             75.8474637

- temperature:       320.0000000
  free_energy:        -7.2699692
  entropy:           266.1153206
  heat_capacity:     204.5132129
  energy:             77.8869334

- temperature:       330.0000000
  free_energy:        -9.9628051
  entropy:           272.4249150
  heat_capacity:     205.5687517
  energy:             79.9374168

- temperature:       340.0000000
  free_energy:       -12.7179405
  entropy:           278.5763817
  heat_capacity:     206.5405168
  energy:             81.9980293

- temperature:       350.0000000
  free_energy:       -15.5338286
  entropy:           284.5765849
  heat_capacity:     207.4369392
  energy:             84.0679761

- temperature:       360.0000000
  free_energy:       -18.4089897
  entropy:           290.4320319
  heat_capacity:     208.2654420
  energy:             86.1465418

- temperature:       370.0000000
  free_energy:       -21.3420073
  entropy:           296.1488859
  heat_capacity:     209.0325771
  energy:             88.2330805

- temperature:       380.0000000
  free_energy:       -24.3315249
  entropy:           301.7329818
  heat_capacity:     209.7441425
  energy:             90.3270082

- temperature:       390.0000000
  free_energy:       -27.3762428
  entropy:           307.1898414
  heat_capacity:     210.4052810
  energy:             92.4277953

- temperature:       400.0000000
  free_energy:       -30.4749151
  entropy:           312.5246902
  heat_capacity:     211.0205655
  energy:             94.5349610

- temperature:       410.0000000
  free_energy:       -33.6263464
  entropy:           317.7424728
  heat_capacity:     211.5940713
  energy:             96.6480674

- temperature:       420.0000000
  free_energy:       -36.8293899
  entropy:           322.8478697
  heat_capacity:     212.1294385
  energy:             98.7667153

- temperature:       430.0000000
  free_energy:       -40.0829440
  entropy:           327.8453116
  heat_capacity:     212.6299256
  energy:            100.8905400

- temperature:       440.0000000
  free_energy:       -43.3859503
  entropy:           332.7389947
  heat_capacity:     213.0984559
  energy:            103.0192074

- temperature:       450.0000000
  free_energy:       -46.7373913
  entropy:           337.5328948
  heat_capacity:     213.5376569
  energy:            105.1524113

- temperature:       460.0000000
  free_energy:       -50.1362882
  entropy:           342.2307801
  heat_capacity:     213.9498955
  energy:            107.2898706

- temperature:       470.0000000
  free_energy:       -53.5816988
  entropy:           346.8362241
  heat_capacity:     214.3373073
  energy:            109.4313265

- temperature:       480.0000000
  free_energy:       -57.0727159
  entropy:           351.3526174
  heat_capacity:     214.7018236
  energy:            111.5765405

- temperature:       490.0000000
  free_energy:       -60.6084651
  entropy:           355.7831787
  heat_capacity:     215.0451935
  energy:            113.7252925

- temperature:       500.0000000
  free_energy:       -64.1881035
  entropy:           360.1309654
  heat_capacity:     215.3690042
  energy:            115.8773792

- temperature:       510.0000000
  free_energy:       -67.8108182
  entropy:           364.3988831
  heat_capacity:     215.6746983
  energy:            118.0326122

- temperature:       520.0000000
  free_energy:       -71.4758242
  entropy:           368.5896949
  heat_capacity:     215.9635892
  energy:            120.1908172

- temperature:       530.0000000
  free_energy:       -75.1823638
  entropy:           372.7060298
  heat_capacity:     216.2368746
  energy:            122.3518320

- temperature:       540.0000000
  free_energy:       -78.9297049
  entropy:           376.7503911
  heat_capacity:     216.4956485
  energy:            124.5155063

- temperature:       550.0000000
  free_energy:       -82.7171397
  entropy:           380.7251630
  heat_capacity:     216.7409113
  energy:            126.6816999

- temperature:       560.0000000
  free_energy:       -86.5439838
  entropy:           384.6326184
  heat_capacity:     216.9735797
  energy:            128.8502825

- temperature:       570.0000000
  free_energy:       -90.4095749
  entropy:           388.4749250
  heat_capacity:     217.1944944
  energy:            131.0211324

- temperature:       580.0000000
  free_energy:       -94.3132720
  entropy:           392.2541514
  heat_capacity:     217.4044278
  energy:            133.1941358

- temperature:       590.0000000
  free_energy:       -98.2544543
  entropy:           395.9722728
  heat_capacity:     217.6040904
  energy:            135.3691867

- temperature:       600.0000000
  free_energy:      -102.2325201
  entropy:           399.6311761
  heat_capacity:     217.7941364
  energy:            137.5461856

- temperature:       610.0000000
  free_energy:      -106.2468864
  entropy:           403.2326652
  heat_capacity:     217.9751694
  energy:            139.7250394

- temperature:       620.0000000
  free_energy:      -110.2969878
  entropy:           406.7784654
  heat_capacity:     218.1477465
  energy:            141.9056608

- temperature:       630.0000000
  free_energy:      -114.3822756
  entropy:           410.2702277
  heat_capacity:     218.3123828
  energy:            144.0879678

- temperature:       640.0000000
  free_energy:      -118.5022175
  entropy:           413.7095329
  heat_capacity:     218.4695549
  energy:            146.2718836

- temperature:       650.0000000
  free_energy:      -122.6562965
  entropy:           417.0978954
  heat_capacity:     218.6197046
  energy:            148.4573355

- temperature:       660.0000000
  free_energy:      -126.8440104
  entropy:           420.4367667
  heat_capacity:     218.7632416
  energy:            150.6442556

- temperature:       670.0000000
  free_energy:      -131.0648715
  entropy:           423.7275389
  heat_capacity:     218.9005462
  energy:            152.8325796

- temperature:       680.0000000
  free_energy:      -135.3184053
  entropy:           426.9715475
  heat_capacity:     219.0319722
  energy:            155.0222470

- temperature:       690.0000000
  free_energy:      -139.6041508
  entropy:           430.1700744
  heat_capacity:     219.1578485
  energy:            157.2132006

- temperature:       700.0000000
  free_energy:      -143.9216593
  entropy:           433.3243511
  heat_capacity:     219.2784816
  energy:            159.4053864

- temperature:       710.0000000
  free_energy:      -148.2704943
  entropy:           436.4355605
  heat_capacity:     219.3941572
  energy:            161.5987537

- temperature:       720.0000000
  free_energy:      -152.6502308
  entropy:           439.5048399
  heat_capacity:     219.5051419
  energy:            163.7932540

- temperature:       730.0000000
  free_energy:      -157.0604550
  entropy:           442.5332831
  heat_capacity:     219.6116848
  energy:            165.9888417

- temperature:       740.0000000
  free_energy:      -161.5007638
  entropy:           445.5219425
  heat_capacity:     219.7140185
  energy:            168.1854736

- temperature:       750.0000000
  free_energy:      -165.9707646
  entropy:           448.4718311
  heat_capacity:     219.8123609
  energy:            170.3831088

- temperature:       760.0000000
  free_energy:      -170.4700745
  entropy:           451.3839246
  heat_capacity:     219.9069160
  energy:            172.5817082

- temperature:       770.0000000
  free_energy:      -174.9983202
  entropy:           454.2591628
  heat_capacity:     219.9978749
  energy:            174.7812351

- temperature:       780.0000000
  free_energy:      -179.5551379
  entropy:           457.0984516
  heat_capacity:     220.0854170
  energy:            176.9816543

- temperature:       790.0000000
  free_energy:      -184.1401723
  entropy:           459.9026645
  heat_capacity:     220.1697105
  energy:            179.1829326

- temperature:       800.0000000
  free_energy:      -188.7530771
  entropy:           462.6726441
  heat_capacity:     220.2509135
  energy:            181.3850382

- temperature:       810.0000000
  free_energy:      -193.3935138
  entropy:           465.4092036
  heat_capacity:     220.3291748
  energy:            183.5879411

- temperature:       820.0000000
  free_energy:      -198.0611524
  entropy:           468.1131278
  heat_capacity:     220.4046341
  energy:            185.7916124

- temperature:       830.0000000
  free_energy:      -202.7556701
  entropy:           470.7851747
  heat_capacity:     220.4774232
  energy:            187.9960249

- temperature:       840.0000000
  free_energy:      -207.4767520
  entropy:           473.4260767
  heat_capacity:     220.5476660
  energy:            190.2011524

- temperature:       850.0000000
  free_energy:      -212.2240902
  entropy:           476.0365415
  heat_capacity:     220.6154796
  energy:            192.4069701

- temperature:       860.0000000
  free_energy:      -216.9973837
  entropy:           478.6172534
  heat_capacity:     220.6809743
  energy:            194.6134542

- temperature:       870.0000000
  free_energy:      -221.7963383
  entropy:           481.1688741
  heat_capacity:     220.7442543
  energy:            196.8205822

- temperature:       880.0000000
  free_energy:      -226.6206663
  entropy:           483.6920439
  heat_capacity:     220.8054179
  energy:            199.0283323

- temperature:       890.0000000
  free_energy:      -231.4700864
  entropy:           486.1873823
  heat_capacity:     220.8645582
  energy:            201.2366838

- temperature:       900.0000000
  free_energy:      -236.3443232
  entropy:           488.6554891
  heat_capacity:     220.9217633
  energy:            203.4456170

- temperature:       910.0000000
  free_energy:      -241.2431074
  entropy:           491.0969453
  heat_capacity:     220.9771163
  energy:            205.6551129

- temperature:       920.0000000
  free_energy:      -246.1661752
  entropy:           493.5123137
  heat_capacity:     221.0306960
  energy:            207.8651534

- temperature:       930.0000000
  free_energy:      -251.1132685
  entropy:           495.9021394
  heat_capacity:     221.0825773
  energy:            210.0757212

- temperature:       940.0000000
  free_energy:      -256.0841346
  entropy:           498.2669512
  heat_capacity:     221.1328310
  energy:            212.2867995

- temperature:       950.0000000
  free_energy:      -261.0785258
  entropy:           500.6072615
  heat_capacity:     221.1815241
  energy:            214.4983726

- temperature:       960.0000000
  free_energy:      -266.0961998
  entropy:           502.9235675
  heat_capacity:     221.2287206
  energy:            216.7104250

- temperature:       970.0000000
  free_energy:      -271.1369188
  entropy:           505.2163515
  heat_capacity:     221.2744809
  energy:            218.9229422

- temperature:       980.0000000
  free_energy:      -276.2004500
  entropy:           507.4860816
  heat_capacity:     221.3188626
  energy:            221.1359100

- temperature:       990.0000000
  free_energy:      -281.2865651
  entropy:           509.7332123
  heat_capacity:     221.3619203
  energy:            223.3493150

- temperature:      1000.0000000
  free_energy:      -286.3950404
  entropy:           511.9581846
  heat_capacity:     221.4037060
  energy:            225.5631442
