# Tetrahedron method
       -2.0653686680        0.0000000000
       -1.9970272081        0.0000000000
       -1.9286857481        0.0000000000
       -1.8603442882        0.0000000000
       -1.7920028282        0.0000000000
       -1.7236613683        0.0000000000
       -1.6553199083        0.0000000000
       -1.5869784484        0.0000000000
       -1.5186369884        0.0000000000
       -1.4502955285        0.0000000000
       -1.3819540685        0.0000000000
       -1.3136126086        0.0000000000
       -1.2452711486        0.0000000000
       -1.1769296887        0.0000000000
       -1.1085882287        0.0000000000
       -1.0402467688        0.0000000000
       -0.9719053088        0.0000000000
       -0.9035638489        0.0818950819
       -0.8352223889        0.1664138543
       -0.7668809290        0.1736685806
       -0.6985394690        0.1786940709
       -0.6301980090        0.1686444813
       -0.5618565491        0.1588980220
       -0.4935150891        0.1443971897
       -0.4251736292        0.1194905371
       -0.3568321692        0.1052002435
       -0.2884907093        0.0983814716
       -0.2201492493        0.0970007351
       -0.1518077894        0.0983425926
       -0.0834663294        0.1012306313
       -0.0151248695        0.1054949758
        0.0532165905        0.1111007993
        0.1215580504        0.1188073543
        0.1898995104        0.1312476024
        0.2582409703        0.1504942985
        0.3265824303        0.1729817957
        0.3949238902        0.2128911271
        0.4632653502        0.2531925145
        0.5316068101        0.3091105145
        0.5999482701        0.3869514818
        0.6682897300        0.4502507249
        0.7366311900        0.5335354393
        0.8049726499        0.6211223209
        0.8733141099        0.7321560920
        0.9416555698        0.8585276917
        1.0099970298        1.0189781519
        1.0783384897        1.2560705860
        1.1466799497        1.6957483902
        1.2150214096        1.6817536238
        1.2833628696        1.8130252014
        1.3517043295        2.2064687401
        1.4200457895        2.8307317709
        1.4883872494        3.0771168773
        1.5567287094        3.1529142586
        1.6250701693        2.8826569104
        1.6934116293        3.6881291369
        1.7617530892        1.0583901679
        1.8300945492        0.7609478405
        1.8984360091        0.7964392106
        1.9667774691        0.7111855580
        2.0351189291        0.6492366533
        2.1034603890        0.6274434152
        2.1718018490        0.6230263539
        2.2401433089        0.6558911829
        2.3084847689        0.6850181452
        2.3768262288        0.7218224477
        2.4451676888        0.7587040975
        2.5135091487        0.8142623541
        2.5818506087        0.8807907406
        2.6501920686        0.9775761487
        2.7185335286        1.1168918398
        2.7868749885        1.4438874270
        2.8552164485        1.8690362797
        2.9235579084        0.5612189892
        2.9918993684        0.6172060579
        3.0602408283        0.6818012019
        3.1285822883        0.7624632287
        3.1969237482        0.9102577123
        3.2652652082        0.9925409050
        3.3336066681        1.0179373063
        3.4019481281        1.0542345632
        3.4702895880        1.1437250657
        3.5386310480        1.2046256929
        3.6069725079        1.1992002339
        3.6753139679        1.0581031739
        3.7436554278        1.0877264967
        3.8119968878        1.2092139558
        3.8803383477        1.4507645813
        3.9486798077        1.4232080600
        4.0170212676        1.5908511174
        4.0853627276        2.0411420228
        4.1537041875        2.4814540131
        4.2220456475        3.4036102965
        4.2903871074        3.4224550679
        4.3587285674        3.5806970263
        4.4270700273        2.9375190135
        4.4954114873        2.7273056637
        4.5637529472        4.5304020532
        4.6320944072        3.9300275600
        4.7004358671        3.5433714790
        4.7687773271        3.2027881529
        4.8371187871        3.7632856321
        4.9054602470        3.7365299550
        4.9738017070        3.3155831560
        5.0421431669        2.5422229535
        5.1104846269        2.3435577802
        5.1788260868        2.1794012140
        5.2471675468        2.4198389659
        5.3155090067        2.7600524612
        5.3838504667        2.4512734454
        5.4521919266        2.5557003396
        5.5205333866        2.8750413752
        5.5888748465        3.0110684200
        5.6572163065        3.3258675426
        5.7255577664        4.2172762799
        5.7938992264        4.1604335067
        5.8622406863        3.9264632200
        5.9305821463        2.9834142990
        5.9989236062        2.4656856627
        6.0672650662        2.6046562505
        6.1356065261        2.6521736698
        6.2039479861        2.4983745275
        6.2722894460        2.7215672161
        6.3406309060        3.6079890277
        6.4089723659        3.9647761343
        6.4773138259        3.4796004235
        6.5456552858        3.3025969998
        6.6139967458        2.7831151262
        6.6823382057        2.6784934966
        6.7506796657        3.4257362400
        6.8190211256        3.8639544903
        6.8873625856        3.6938913428
        6.9557040455        4.3035187783
        7.0240455055        3.8888590126
        7.0923869654        3.4754397023
        7.1607284254        3.4785629201
        7.2290698853        3.5283271238
        7.2974113453        3.9850417617
        7.3657528052        3.7764222822
        7.4340942652        4.0291307762
        7.5024357251        4.5852078644
        7.5707771851        4.7105112656
        7.6391186451        4.0441037262
        7.7074601050        4.0690005519
        7.7758015650        4.1194518534
        7.8441430249        3.7560671611
        7.9124844849        3.7685736388
        7.9808259448        3.8108079873
        8.0491674048        3.8296241684
        8.1175088647        3.4608256769
        8.1858503247        3.7895054956
        8.2541917846        4.1159272014
        8.3225332446        3.5946506503
        8.3908747045        3.5824781807
        8.4592161645        3.8948382787
        8.5275576244        3.7515823584
        8.5958990844        3.0041966116
        8.6642405443        3.4067005343
        8.7325820043        3.6339125487
        8.8009234642        3.7109701166
        8.8692649242        3.7651820930
        8.9376063841        5.1629201954
        9.0059478441        3.6383697158
        9.0742893040        4.1929225089
        9.1426307640        3.6220306018
        9.2109722239        4.8788493878
        9.2793136839        5.8257531524
        9.3476551438        5.2296447670
        9.4159966038        4.9210222078
        9.4843380637        5.5521271255
        9.5526795237        4.1216254655
        9.6210209836        4.8939148634
        9.6893624436        4.7108715971
        9.7577039035        4.8575602741
        9.8260453635        4.0665030657
        9.8943868234        3.4708788900
        9.9627282834        3.1326167400
       10.0310697433        3.0929108960
       10.0994112033        3.0741413996
       10.1677526632        2.6301766244
       10.2360941232        2.1076697056
       10.3044355831        0.8193181264
       10.3727770431        0.4353561829
       10.4411185031        0.1403260898
       10.5094599630        0.0000000000
       10.5778014230        0.0000000000
       10.6461428829        0.0000000000
       10.7144843429        0.0000000000
       10.7828258028        0.0000000000
       10.8511672628        0.0000000000
       10.9195087227        0.0000000000
       10.9878501827        0.0000000000
       11.0561916426        0.0000000000
       11.1245331026        0.0000000000
       11.1928745625        0.0000000000
       11.2612160225        0.0000000000
       11.3295574824        0.0000000000
       11.3978989424        0.0000000000
       11.4662404023        0.0000000000
       11.5345818623        0.0000000000
       11.6029233222        0.0000000000
