8
Lattice="4.898104895998758 -0.0036232002935223215 0.003781762091949067 0.005273295168077571 5.281732016729243 -3.15513692275211 -0.0039418102171853795 -0.057195785783810536 6.150096702708314" Properties=species:S:1:pos:R:3:forces:R:3 structure_index=0 total_energy=-24.34073257446289 stress="-0.024297501891851425 0.00019266274466644973 0.00025658003869466484 0.000192838633665815 -0.01916784979403019 -0.010041315108537674 0.00025657497462816536 -0.010041340254247189 -0.008046056143939495" pbc="T T T"
Li       3.18704035       3.19229322      -0.27682037      -0.00131439       0.01525980      -0.02817373
Li       0.73656473       4.90989525       2.77424355      -0.00118391      -0.01495301       0.02606049
Ga       0.73396762       2.35722999       4.31691548      -0.00058028      -0.01722860       0.03851303
Ga       3.18249001       0.46433441       1.33336473       0.00145712       0.01633327      -0.03640606
Ga       0.73795195       4.92556507      -0.38759567       0.00061520      -0.02143535       0.02950075
Ga       3.18335919       3.17752576       2.88417976       0.00161669       0.02048475      -0.03019014
Sn       0.73515854       2.29280107       1.28112792      -0.00029780      -0.00163024       0.01021248
Sn       3.18178261       0.52783558       4.36948421      -0.00031263       0.00316937      -0.00951684
5
Lattice="3.66338574481096 0.001402757449025978 1.8178255633565712 1.5552941534274487 4.894325476136433 1.459775578364042 -0.2030570997939799 -0.6172029171735588 4.998321088367874" Properties=species:S:1:pos:R:3:forces:R:3 structure_index=1 total_energy=-14.606460571289062 stress="0.04347719997167587 -0.005785726942121983 -0.005924082361161709 -0.00578572042286396 -0.01718026027083397 0.011436237022280693 -0.005923992022871971 0.01143632736057043 0.0034135784953832626" pbc="T T T"
Li       1.10820588       0.75100159       3.99146776       0.01566619      -0.02515206      -0.03206650
Li       3.23929747       2.84015984       4.29721671      -0.01567703       0.02512907       0.03216223
Ga       0.12495906      -0.04233962       1.37807917       0.00702969      -0.00424763      -0.01298257
Ga       4.22255343       3.63347337       6.91059662      -0.00702951       0.00431594       0.01302366
Sn       2.27528232       2.10418398       1.64521767       0.00001065      -0.00004531      -0.00013682
4
Lattice="4.031767623968554 -0.00026540279931379146 2.329960018638344 1.3438587452357902 3.8016860872576115 2.3253651783632505 0.00032234460627216877 0.0003269196989025525 4.656599611202066" Properties=species:S:1:pos:R:3:forces:R:3 structure_index=2 total_energy=-11.74659538269043 stress="0.05171463266015053 0.002456437796354294 -0.0010656077647581697 0.00245632603764534 0.056849535554647446 -0.0029559973627328873 -0.001065517426468432 -0.0029561270494014025 0.06050093099474907" pbc="T T T"
Li       2.27678846       2.53220223       6.21648303      -0.00035710      -0.00066465      -0.00150340
Li       3.62110460       0.63126951       3.89055057      -0.00186010      -0.00109598      -0.00149934
Ga       0.93169897       1.58083935       3.88731693       0.00260317       0.00195710       0.00216421
Sn       3.62065218       3.48233341       3.88743313      -0.00038596      -0.00019647       0.00083853
4
Lattice="4.4393586635442555 0.0015031821096812327 -0.0003184156600017185 -0.0011216796548231928 4.060220571703134 -0.0007037849262013307 0.00036111385731690517 0.0004607188002545846 4.060205423679752" Properties=species:S:1:pos:R:3:forces:R:3 structure_index=3 total_energy=-11.800264358520508 stress="0.02383287250995636 0.0008373942691832781 0.0002398235083092004 0.0008373460150323808 0.0787038505077362 -0.002253204118460417 0.00023983103164937347 -0.0022532357834279537 0.07863255590200424" pbc="T T T"
Li       1.65377400       4.05375953       0.29386012       0.00053545      -0.00033438       0.00024655
Li       1.65447360       2.02369330       2.32457906       0.00061707       0.00020796      -0.00052577
Ga       3.87387670       4.05456836       2.32376401      -0.00031568       0.00013958       0.00029517
Sn       3.87427426       2.02426888       0.29408840      -0.00083685      -0.00001316      -0.00001595
12
Lattice="4.243717506989759 0.004202838915606452 1.3741306443017085 2.1166162521564296 6.881275658076753 0.6825422176579347 -0.02037994558987229 0.07634978530524224 7.303098391747785" Properties=species:S:1:pos:R:3:forces:R:3 structure_index=4 total_energy=-32.307796478271484 stress="0.035937946289777756 -0.0007362772012129426 0.001871204935014248 -0.0007363943732343614 0.03040030226111412 0.0023549783509224653 0.0018711519660428166 0.0023548579774796963 0.03089660033583641" pbc="T T T"
Li       3.22002164       4.05354612       4.27927687      -0.00439798       0.03030405       0.01437810
Li       3.30210089       6.89477074       4.01934991      -0.01046418       0.00037624       0.02923808
Li       2.19645153       0.54787919       7.45175032      -0.00638740      -0.00540492       0.01891550
Li       4.71975451       2.54439693       6.89243570       0.00333928      -0.00641705      -0.00984412
Li       5.84734969       5.30693075       3.40108976       0.00014804      -0.02029550       0.00023890
Li       2.41234306       5.85717497       6.76807074      -0.00164153      -0.02252038       0.00574886
Li       3.85281812       1.91312363       2.33245378       0.00272390       0.00038086      -0.00950509
Ga       3.00300254       1.48497624       4.95851142      -0.00044734       0.02153191       0.00100846
Ga       2.11573521       3.20043351       7.69200914       0.00192141      -0.00879596      -0.00459281
Ga       1.30606611       2.65422140       2.95532490       0.00236803      -0.00547254      -0.00890085
Ga       4.14050798       4.63801126       1.43401588       0.01261223       0.00684068      -0.03758083
Sn       5.01384491       5.48457751       5.97505842       0.00022554       0.00947261       0.00089583
4
Lattice="4.032370979931961 -1.5420219560732454e-05 2.3279518694995005 1.3425183555026954 3.8023320269512975 2.32950663294439 0.00013996191264812238 6.950063447911376e-05 4.657702456875345" Properties=species:S:1:pos:R:3:forces:R:3 structure_index=5 total_energy=-11.746583938598633 stress="0.06835789978504181 -0.0003220583312213421 -0.0010326193878427148 -0.00032187317265197635 0.06991468369960785 -3.517636514516198e-06 -0.0010325025068596005 -3.557075160642853e-06 0.07103200256824493" pbc="T T T"
Li       1.84219981       2.00937758       3.35037806      -0.00023134       0.00023396      -0.00053462
Li       3.18732745       0.10805280       5.67809749      -0.00059494       0.00066130       0.00031161
Ga       0.49826933       1.05840448       1.02112243       0.00040246       0.00076888       0.00058748
Sn       3.18584262       2.96040532       5.67907674       0.00042385      -0.00166414      -0.00036448
12
Lattice="4.3319915883616344 -0.0004818086559934596 0.0006659912549176044 0.0006191457004585104 6.0858956294707935 0.0014401708663275118 -0.0014373228314507427 -0.002325296790332639 9.279632566223261" Properties=species:S:1:pos:R:3:forces:R:3 structure_index=6 total_energy=-36.97673034667969 stress="-0.002641031052917242 -7.091758220667543e-07 0.00015827719471417367 -7.221364626275317e-07 0.006332951597869396 -2.600667176011484e-05 0.00015829960466362536 -2.5996912881964818e-05 -0.0016423530178144574" pbc="T T T"
Li       3.58040942       5.24978912       1.26805870       0.00008744      -0.01174452      -0.02850681
Li       3.57988344       2.20523768       4.12536488      -0.00000189      -0.01031420       0.02810598
Li       1.41367772       3.86603471       5.90652119      -0.00013356       0.01369709      -0.02711632
Li       1.41253600       0.82365593       8.76467167       0.00003584       0.01133751       0.02787785
Ga       3.57923276       5.45633054       7.32942032       0.00066771       0.01367982      -0.02781500
Ga       1.41424028       3.65926010       2.68839594      -0.00045213      -0.01367500      -0.02602247
Ga       1.41384187       0.61676615       2.70258567      -0.00032072      -0.01574688       0.02878764
Ga       3.57917972       2.41278530       7.34337948       0.00012656       0.01600763       0.02909228
Sn       1.41344697       0.91296970       5.79704368      -0.00039702      -0.04376491      -0.00411151
Sn       3.57988165       2.11794821       1.15870603       0.00062473       0.04132601      -0.00703938
Sn       1.41311646       3.95502646       8.87502748      -0.00032789      -0.04158733       0.00143914
Sn       3.58005708       5.16006089       4.23488427       0.00009091       0.04078477       0.00530860
3
Lattice="3.933694490183805 0.00018549830699131402 2.267060452808476 1.3119577601025392 3.7079346025885225 2.2691128692596054 0.0009079581764187741 0.0001614438281658822 4.5402795450954345" Properties=species:S:1:pos:R:3:forces:R:3 structure_index=7 total_energy=-9.425323486328125 stress="0.08181386440992355 0.002052151830866933 -0.006435886956751347 0.002052001655101776 0.07452939450740814 0.0013319519348442554 -0.006435927469283342 0.0013321288861334324 0.07407740503549576" pbc="T T T"
Li       1.31469870       2.39348852       2.02142067       0.00108300       0.00116896       0.00077431
Ga       2.62767639       3.32183964       4.29158515      -0.00122254      -0.00121600       0.00245255
Sn       2.62736716       0.54090513       4.29247991       0.00013954       0.00004706      -0.00322685
12
Lattice="4.544327588132815 -0.0013280901465699928 0.00044059746203886397 -2.2711720189835396 3.9362088003167814 -0.0020165210118185577 -0.00124491133208609 0.004848703125103474 11.89959040476767" Properties=species:S:1:pos:R:3:forces:R:3 structure_index=8 total_energy=-34.37236404418945 stress="-0.01413282286375761 -6.255488551687449e-05 0.00014664595073554665 -6.244068936211988e-05 -0.013678086921572685 -0.0003133845457341522 0.00014670063683297485 -0.00031324068550020456 -0.017545141279697418" pbc="T T T"
Li       0.08931498       1.70683199       2.65563867       0.00068252      -0.00018188       0.02745233
Li       2.36139908       0.39562747       6.29759124       0.00134866      -0.00036711      -0.04892308
Li       0.09003450       1.70793722       5.93326965      -0.00056080       0.00006755      -0.00319513
Li       2.36281401       0.39599378       9.12225756      -0.00107823       0.00067181       0.00064866
Li       0.09087407       1.70851932       8.75662716      -0.00050005       0.00013420       0.04769415
Li       2.36195450       0.39323279       0.49880880       0.00007988       0.00014055      -0.03024192
Li       2.36144147       3.01771052       1.57514115       0.00124242      -0.00036028       0.00247835
Ga       0.08940028       1.71032864      11.82886742       0.00049262      -0.00081511      -0.01009604
Ga       2.36170750       0.39437134       3.22302504      -0.00123524       0.00065809       0.01369354
Sn       2.36264751       3.02061749      10.64525937      -0.00072915       0.00062354      -0.02403975
Sn       2.36216986       3.01872445       4.40616912       0.00054222      -0.00055700       0.02224869
Sn       2.36289779       3.01947586       7.52557938      -0.00028483      -0.00001433       0.00228018
12
Lattice="4.335269816586457 0.0026999822041255755 -0.0023401928203411 -0.0036968705672407055 6.088654670063062 -0.0023461262906489463 0.004735058592044541 0.002622887174555557 9.27690225030807" Properties=species:S:1:pos:R:3:forces:R:3 structure_index=9 total_energy=-36.97919464111328 stress="0.013838148675858974 1.148556202679174e-05 -0.0005704857758246362 1.1387608537916094e-05 0.025130122900009155 6.730193854309618e-05 -0.0005705516086891294 6.743348058080301e-05 0.01787037029862404" pbc="T T T"
Li       0.73755336       0.43289504       9.29358552       0.00007694       0.00520984       0.00953651
Li       2.90043737       2.10928738       1.76389065       0.00003804      -0.00469802      -0.00840946
Li       2.90028102       5.15220363       4.65126584      -0.00005107      -0.00121622       0.01237213
Li       0.73426495       3.47749857       6.40495666       0.00002241       0.00244335      -0.01275342
Ga       0.73250726       3.69741997       3.19420980      -0.00017257       0.01082832      -0.01828407
Ga       0.73448564       0.65286978       3.22863423      -0.00045723       0.01188172       0.01210119
Ga       2.90198396       4.93239204       7.86231648      -0.00020955      -0.00847467       0.01565434
Ga       2.90373431       1.88901046       7.83095757      -0.00004053      -0.01320028      -0.01548109
Sn       2.89832027       5.23415168       1.67640533       0.00031239      -0.03291725       0.00049894
Sn       2.90155141       2.19082423       4.74171369       0.00103002      -0.03458750      -0.00294561
Sn       0.73654012       0.35118430       6.31612630      -0.00075083       0.03376948       0.00548894
Sn       0.73114295       3.39479125       0.10235653       0.00020195       0.03096126       0.00222158
15
Lattice="3.9213620978947654 0.001715867037111338 -0.9849753086797776 -0.5652829035565502 7.915808039201427 -2.2333669215792304 0.08819798065295827 0.07219172228173677 8.649215863485258" Properties=species:S:1:pos:R:3:forces:R:3 structure_index=10 total_energy=-42.34980773925781 stress="-0.019659778103232384 0.0017309827962890267 0.004187171347439289 0.00173105055000633 -0.025075962767004967 0.007629732601344585 0.004187250975519419 0.007629756350070238 -0.003713788464665413" pbc="T T T"
Li       0.28700319       1.39316886       7.84967954      -0.00179401      -0.01048660      -0.00622681
Li       2.32606894       5.90987539      -0.61949643      -0.00190834       0.00307103      -0.00622525
Li       1.51232884       4.88471465       4.44112804      -0.00330002      -0.01379694      -0.01515783
Li       2.64098437       1.76744154       0.62212613      -0.00498264       0.00951556      -0.01727453
Li       1.77106440       0.85313849       5.46215865       0.00529586       0.02271494       0.01599102
Ga       1.18709143       2.37437001       3.13651637      -0.00545722      -0.01634572      -0.02644228
Ga       0.27586181       7.82807151      -0.48333635      -0.00232285       0.00868571      -0.00170926
Ga       3.26546011       0.31088889       3.10893806       0.01020784      -0.00162836       0.03860018
Ga       3.59253689       2.86241827       4.41345648       0.00647149      -0.01995043       0.03431106
Ga       1.79707019       7.36821992       5.58074855      -0.00616438       0.02262225      -0.02486371
Ga       3.28442078       6.83278479       3.20442140      -0.00075403       0.00240515      -0.00817931
Ga       2.08502395       3.38184837       6.71198173       0.00691272       0.00700654       0.03168420
Ga       3.02062850       4.42290543       2.14087948      -0.00836901      -0.00468203      -0.02687787
Ga      -0.01358833       5.47530480       6.66867108       0.00599090      -0.00718725       0.01215112
Sn       0.56217933       3.91998605       0.65066844       0.00017370      -0.00194386       0.00021923
4
Lattice="4.326851628493947 7.893073881365535e-05 2.4942331681106524 1.4388326145294719 4.078968879301203 2.4936728936043204 0.000182137475509014 1.0556832789639551e-05 4.993455114176149" Properties=species:S:1:pos:R:3:forces:R:3 structure_index=11 total_energy=-11.803929328918457 stress="0.03856871277093887 -0.002080633770674467 -0.0042263902723789215 -0.002080584177747369 0.031563472002744675 -0.001779659534804523 -0.0042260270565748215 -0.0017794925952330232 0.022925149649381638" pbc="T T T"
Li       0.57825852       1.22264817       2.61953785       0.00032931       0.00019894       0.00082772
Ga       2.01935811       2.24232496       5.11509735      -0.00271452      -0.00069699      -0.00254035
Ga       3.46491252       0.20360032       2.62049876      -0.00159522      -0.00097178      -0.00236170
Sn       3.45961925       3.26170473       7.60929374       0.00398048       0.00146984       0.00407433
8
Lattice="4.451971949492513 -0.002329605593992847 0.003973274168783277 0.0015143759513245206 4.451991082742546 0.004801749696984906 -0.00759487036855024 -0.009200952821620966 8.740118723989594" Properties=species:S:1:pos:R:3:forces:R:3 structure_index=12 total_energy=-25.805850982666016 stress="-0.03132101148366928 -0.0013043152866885066 -0.00028895121067762375 -0.0013042588252574205 -0.03118707984685898 -0.00034429479273967445 -0.0002889670431613922 -0.00034431644598953426 -0.0057368893176317215" pbc="T T T"
Li       3.93248192       0.44936213       1.49149591       0.00008680      -0.00020961       0.00086815
Li       3.92871641       0.44534242       5.86464231       0.00019522      -0.00082817      -0.00260917
Li       1.70359831       2.67144299       5.86349062       0.00005390       0.00014171      -0.00027414
Ga       1.70732392       2.67587883       1.49265521       0.00005475       0.00018524       0.00004456
Sn       1.70501986       0.44769797       3.73012298      -0.00037441       0.00117294      -0.04353469
Sn       3.93172672       2.67339906       3.73317687      -0.00018937      -0.00114459      -0.04185926
Sn       1.70071301       0.44291138       7.99338860       0.00022780       0.00069100       0.04117649
Sn       3.92757139       2.66818268       7.99495212      -0.00005471      -0.00000852       0.04618805
12
Lattice="4.191682987561618 0.009362079073575771 -0.7623457500275965 -0.14180450950339202 4.024518367514122 -0.7276667472343846 0.08470764743589078 0.16119631025419184 12.374928056527049" Properties=species:S:1:pos:R:3:forces:R:3 structure_index=13 total_energy=-34.41685485839844 stress="0.011706347577273846 -0.0026512753684073687 -0.002678921213373542 -0.002651322167366743 0.03234649449586868 -0.0031879576854407787 -0.0026789112016558647 -0.0031878002919256687 -0.007895967923104763" pbc="T T T"
Li       3.67954473       2.39096311       8.79838016      -0.00222183      -0.00187403      -0.01340552
Li       3.25374219       4.03625926       6.47884699       0.00428610       0.00443729       0.01936513
Li       0.08863185       2.92930805       0.97056315      -0.00468726      -0.00296448      -0.01938551
Li       2.96652068       1.65450358       4.87188219       0.00242723       0.00233696       0.00994341
Li       4.08178756       0.72235934      10.98986440       0.00205075       0.00092618       0.01645632
Li       0.51665100       1.28593140       3.30676132      -0.00261651      -0.00300681      -0.01346446
Ga       1.66431194       0.38394155       9.59724724       0.00113696       0.00312042       0.00681767
Ga       2.57004043       3.33310871       2.72122060       0.00233682      -0.00157611      -0.00199244
Ga       0.77003254       3.63092642       4.72585759      -0.00035894       0.00471753       0.00867075
Ga       1.90567788       2.71969811      10.95496411      -0.00187457      -0.00344143      -0.00758656
Sn       2.26483677       0.93249936       1.00966579       0.00472940       0.00232312       0.01052573
Sn       1.21923425       2.00941028       7.16850982      -0.00520815      -0.00499861      -0.01594453
18
Lattice="6.056446394318175 0.000720581936426883 -2.250375191837394 -1.5425626685264977 7.051292364333379 -4.132996477484878 -0.07851427077921017 0.147107032680125 9.07923879309624" Properties=species:S:1:pos:R:3:forces:R:3 structure_index=14 total_energy=-56.498844146728516 stress="0.010850024409592152 -0.0005274310824461281 0.0003087028453592211 -0.0005273943534120917 0.010731982998549938 0.00017517685773782432 0.00030856230296194553 0.00017519519315101206 0.011595248244702816" pbc="T T T"
Li       1.44893492       2.89619719       1.48491749      -0.01339740       0.00071594      -0.03122447
Li       5.82086085       0.24202450       4.03652895      -0.00612918      -0.00731702       0.01267726
Li      -0.13221964       5.35830441      -2.80697835       0.00815080      -0.01354524       0.02887241
Li       2.89214250       5.31456416      -3.94625867       0.01791478      -0.01131000       0.02387587
Li       4.49306028       2.89792983       0.31225461      -0.01579841       0.01252790      -0.04575864
Ga       0.49387191       2.62906186      -1.66332072       0.00768618       0.00471897       0.00662581
Ga       4.06691964       2.88141266       3.80201279      -0.00323874      -0.02756640       0.00586150
Ga       2.84194606       0.28848313       5.16207476      -0.00175979       0.01902695       0.01700238
Ga       2.38431257       0.82685508      -0.70975635      -0.00917497      -0.00078840      -0.03230642
Ga       0.93295482       2.98099352       4.73955566       0.01334036      -0.00723690       0.00156070
Ga       3.17980378       2.65759889      -2.66140260       0.00488779       0.02364520       0.02539597
Sn       3.42643716       5.14342286       2.12109032       0.00918805      -0.02862930       0.02467730
Sn       0.37239629       5.35349979       3.17151883       0.00391919      -0.00999425      -0.00288668
Sn       2.31923589       4.88323295      -0.81689304      -0.00305109       0.02480581       0.01307553
Sn       5.39748374       0.84379205      -1.85889234      -0.00648016      -0.00960227      -0.01647569
Sn       0.42679522       0.55399927       3.31755962       0.00261729       0.01613817       0.00157822
Sn      -0.73315289       4.64522111       0.18667518      -0.00115315       0.00964347      -0.00320736
Sn       3.40507704       0.65439854       2.05109973      -0.00752152       0.00476737      -0.02934366
4
Lattice="4.33813766211218 0.0015249792084372313 -0.001891395762619527 -0.0016282308526088009 4.291930804861106 -0.001154207021449848 0.0017320469400543903 0.0007042690169994551 4.291792895584167" Properties=species:S:1:pos:R:3:forces:R:3 structure_index=15 total_energy=-12.158462524414062 stress="-0.06072130426764488 -0.0006553226849064231 -0.0006357073434628546 -0.0006554271676577628 0.09239380806684494 -0.001286987098865211 -0.0006356292287819088 -0.0012870307546108961 0.09136021137237549" pbc="T T T"
Li       0.93760575       3.14230972       3.66422634      -0.00012106      -0.00005939       0.00060673
Ga       3.10723655       0.99688610       3.66408860       0.00010322       0.00060781       0.00042785
Ga       3.10569406       3.14319792       1.51716825      -0.00024751      -0.00098106       0.00035102
Sn       0.93725440       0.99613679       1.51955620       0.00026533       0.00043265      -0.00138560
4
Lattice="4.2747952315942115 0.0003199251948143679 -0.0010453545207630456 -0.0007745775764115403 4.2747540434680555 -0.0010628249462132596 0.0007411209057041784 0.000753085969610278 4.356701799119877" Properties=species:S:1:pos:R:3:forces:R:3 structure_index=16 total_energy=-12.158649444580078 stress="-0.05625711753964424 -0.001358948415145278 -0.0015942484606057405 -0.0013588638976216316 -0.05655478686094284 -0.0016262612771242857 -0.0015942802419885993 -0.0016263318248093128 -0.04878929629921913" pbc="T T T"
Li       0.20929662       3.12458482       3.95177421      -0.00067317      -0.00026039      -0.00061200
Ga       2.34562115       3.12509184       1.77251449       0.00097662      -0.00182707       0.00056321
Ga       0.20937646       0.98700554       1.77327884      -0.00093181       0.00032574       0.00130366
Sn       2.34693062       0.98716646       3.95161107       0.00062837       0.00176172      -0.00125487
16
Lattice="4.924431877510905 0.013831498575541787 0.028123168701911335 0.0011572048020816847 5.874371221895617 0.0366076838361082 0.02695259855297109 0.0020756303130872646 9.409841767253388" Properties=species:S:1:pos:R:3:forces:R:3 structure_index=17 total_energy=-43.84452438354492 stress="0.0045498632825911045 -0.004974990151822567 -0.010558603331446648 -0.004974858369678259 0.02325209230184555 -0.002818340202793479 -0.010558497160673141 -0.0028183083049952984 0.004037053789943457" pbc="T T T"
Li       3.80678878       3.71878608       0.98426855      -0.00458040      -0.00346263       0.01133978
Li       1.44495525       5.17448201       1.06673173       0.01163827       0.00386635       0.01604210
Li       2.93470666       2.26804285       5.69207517      -0.00461289      -0.00567342      -0.00389508
Li       0.55691069       3.75349610       5.72893897       0.01594519       0.02045140       0.00167134
Li       4.62573306       5.21596944       3.45000933      -0.03113104      -0.00114378      -0.00122336
Li       2.88542092       5.23367793       5.74410231      -0.00162781       0.00167753      -0.00307384
Li       1.38891526       2.26693986       1.09290796      -0.00017245       0.00672511      -0.00863565
Li       2.14029876       0.81392052       8.04370515       0.01157444       0.00181149       0.00363921
Ga       4.64296679       2.33861257       7.96228547      -0.00727294      -0.02881462      -0.00531800
Ga       4.64520343       5.13702832       7.99024925      -0.00442003       0.03222400      -0.00331260
Ga       0.40980086       0.80825156       5.73582318      -0.00029023      -0.00693826       0.00737844
Ga       2.13963902       3.73208985       8.09964610       0.02019168       0.00320756       0.00723998
Ga       2.16482310       3.75189699       3.38616167       0.00437267      -0.00864482       0.00705493
Ga       2.09471753       0.76133244       3.47265070       0.00449707      -0.02409028      -0.01364959
Ga       4.64181784       2.37612053       3.48941434      -0.02256920      -0.00388263      -0.00165633
Sn       3.90137871       0.77620866       0.98290179       0.00845775       0.01268699      -0.01360131
7
Lattice="4.907633290588851 -0.05094762559877855 -0.7609155026309328 -0.9317113855699868 4.9987440318876 -1.0957977452484213 0.09990348692032275 0.08054283010547744 5.309186001769011" Properties=species:S:1:pos:R:3:forces:R:3 structure_index=18 total_energy=-20.328853607177734 stress="-0.009105720557272434 0.024114908650517464 -0.0063704573549330235 0.024114789441227913 -0.00526944687590003 -0.03476657345890999 -0.006370424758642912 -0.034766435623168945 0.001963472692295909" pbc="T T T"
Li       4.67312974       0.27655692       0.41849177       0.00296875       0.00268153      -0.00053521
Li       0.26899201       1.92548551       3.89128526      -0.00077596      -0.00219565       0.00032647
Ga       0.52043566       3.16582094       1.08950764       0.00407201      -0.00952129       0.00329521
Ga       3.49059261       4.03541512       2.12403785      -0.00245406       0.00917037      -0.00341589
Ga       2.82329640       2.54995780      -0.53707846      -0.02119814      -0.01610585       0.00818684
Ga       1.18835420       4.65058474       3.75024749       0.01924885       0.01660127      -0.00565712
Sn       2.47169604       1.10149222       2.15527216      -0.00186147      -0.00063035      -0.00220033
12
Lattice="4.271524010808408 -0.0007112935002449541 -0.7131997103154636 -0.11842956179158844 4.270440414782005 -0.7153971913298198 -0.08565455374289309 -0.08280016160924544 12.638506609683663" Properties=species:S:1:pos:R:3:forces:R:3 structure_index=19 total_energy=-36.28135681152344 stress="0.003537482116371393 0.0008391435840167105 -0.001408308744430542 0.0008391966111958027 0.001324308686889708 -0.001547877793200314 -0.001408280455507338 -0.0015478491550311446 -0.005659494549036026" pbc="T T T"
Li       1.11609675       3.62607256       1.52611362      -0.00749910      -0.00738495      -0.04160208
Li       1.53356805       1.85969297       4.03064966       0.00293778       0.00438486       0.02097604
Li       2.16999222       2.51854822       7.84893370      -0.00761504      -0.00861723      -0.04685731
Li       1.90586493       0.04813468       6.26347312       0.00393003       0.00515098       0.03165099
Li       2.92722310       3.29284556      -0.77367964       0.00494048       0.00400091       0.03044198
Li       0.39165735       2.88727869      10.34270040       0.00483630       0.00439889       0.02895985
Ga       0.85580873       1.16307903      -0.02815518       0.00370937       0.00392953       0.02410527
Ga       3.98696051       2.18818789       5.58113323       0.00401608       0.00391273       0.02068473
Sn       0.09965468       0.38951330       8.60038887      -0.00231106      -0.00341807      -0.02435656
Sn       2.57626895       0.74118990      10.28200710      -0.00215100      -0.00245815      -0.00959810
Sn       3.31730509       1.49659553       1.56565184      -0.00269496      -0.00070686      -0.01736218
Sn       3.59879599       3.98341956       3.25017833      -0.00209886      -0.00319262      -0.01704267
10
Lattice="3.2999243423655487 0.003914685557852329 -0.0011493495179473148 -0.002888153515672982 3.299885541157165 -0.0007737173146109007 0.006603823653000807 0.004595725122650954 17.92332743084834" Properties=species:S:1:pos:R:3:forces:R:3 structure_index=20 total_energy=-30.938201904296875 stress="0.0049093663692474365 0.0035137508530169725 -0.00017455487977713346 0.0035137482918798923 0.004517874680459499 -0.0001179053433588706 -0.00017443734395783395 -0.00011785679089371115 -0.01543517131358385" pbc="T T T"
Li       0.70913048       1.09433331       4.14067454       0.00004619       0.00022323      -0.01110807
Li       0.71414570       1.09769665      15.34804495       0.00007392       0.00042858       0.00628498
Li       0.71056870       1.09548665       7.87428149       0.00004029      -0.00004748      -0.00633103
Li       0.70837934       1.09405755       1.16958127      -0.00006661      -0.00019108       0.00720314
Li       0.71276016       1.09717919      11.60735595      -0.00017889      -0.00028125       0.00063014
Ga       2.35720055       2.74609126       2.65381882       0.00020216       0.00001828      -0.00093191
Sn       2.36314676       2.75020323      17.22765596      -0.00011186      -0.00019466       0.01902761
Sn       2.36003981       2.74810140       9.75523687       0.00013055       0.00013881      -0.01066289