# Thermal properties / unit cell (natom)

unit:
  temperature:   K
  free_energy:   kJ/mol
  entropy:       J/K/mol
  heat_capacity: J/K/mol

natom: 4    
cutoff_frequency: 0.00000
num_modes: 137904
num_integrated_modes: 132131

zero_point_energy:      11.2093966

thermal_properties:
- temperature:         0.0000000
  free_energy:        11.2093966
  entropy:             0.0000000
  heat_capacity:       0.0000000
  energy:             11.2093966

- temperature:        10.0000000
  free_energy:        11.2034535
  entropy:             2.0032388
  heat_capacity:       4.6611976
  energy:             11.2234859

- temperature:        20.0000000
  free_energy:        11.1524277
  entropy:             8.7800050
  heat_capacity:      16.3011432
  energy:             11.3280278

- temperature:        30.0000000
  free_energy:        11.0224358
  entropy:            17.2857505
  heat_capacity:      25.7776922
  energy:             11.5410083

- temperature:        40.0000000
  free_energy:        10.8071452
  entropy:            25.7054802
  heat_capacity:      32.8074660
  energy:             11.8353644

- temperature:        50.0000000
  free_energy:        10.5098768
  entropy:            33.6701865
  heat_capacity:      38.6773567
  energy:             12.1933861

- temperature:        60.0000000
  free_energy:        10.1351926
  entropy:            41.2002353
  heat_capacity:      44.0203384
  energy:             12.6072068

- temperature:        70.0000000
  free_energy:         9.6870903
  entropy:            48.3639745
  heat_capacity:      48.9915506
  energy:             13.0725685

- temperature:        80.0000000
  free_energy:         9.1689692
  entropy:            55.2102159
  heat_capacity:      53.5870255
  energy:             13.5857865

- temperature:        90.0000000
  free_energy:         8.5838462
  entropy:            61.7680355
  heat_capacity:      57.7812602
  energy:             14.1429694

- temperature:       100.0000000
  free_energy:         7.9345098
  entropy:            68.0553115
  heat_capacity:      61.5649440
  energy:             14.7400410

- temperature:       110.0000000
  free_energy:         7.2235989
  entropy:            74.0848475
  heat_capacity:      64.9482563
  energy:             15.3729322

- temperature:       120.0000000
  free_energy:         6.4536353
  entropy:            79.8676323
  heat_capacity:      67.9553613
  energy:             16.0377512

- temperature:       130.0000000
  free_energy:         5.6270334
  entropy:            85.4142939
  heat_capacity:      70.6182238
  energy:             16.7308916

- temperature:       140.0000000
  free_energy:         4.7461007
  entropy:            90.7356019
  heat_capacity:      72.9718502
  energy:             17.4490849

- temperature:       150.0000000
  free_energy:         3.8130360
  entropy:            95.8425228
  heat_capacity:      75.0511509
  energy:             18.1894144

- temperature:       160.0000000
  free_energy:         2.8299280
  entropy:           100.7460985
  heat_capacity:      76.8891029
  energy:             18.9493038

- temperature:       170.0000000
  free_energy:         1.7987553
  entropy:           105.4572789
  heat_capacity:      78.5158191
  energy:             19.7264927

- temperature:       180.0000000
  free_energy:         0.7213880
  entropy:           109.9867669
  heat_capacity:      79.9581993
  energy:             20.5190061

- temperature:       190.0000000
  free_energy:        -0.4004089
  entropy:           114.3448970
  heat_capacity:      81.2399291
  energy:             21.3251215

- temperature:       200.0000000
  free_energy:        -1.5649717
  entropy:           118.5415501
  heat_capacity:      82.3816678
  energy:             22.1433383

- temperature:       210.0000000
  free_energy:        -2.7707329
  entropy:           122.5861009
  heat_capacity:      83.4013281
  energy:             22.9723482

- temperature:       220.0000000
  free_energy:        -4.0162162
  entropy:           126.4873910
  heat_capacity:      84.3143853
  energy:             23.8110098

- temperature:       230.0000000
  free_energy:        -5.3000310
  entropy:           130.2537228
  heat_capacity:      85.1341851
  energy:             24.6583253

- temperature:       240.0000000
  free_energy:        -6.6208668
  entropy:           133.8928664
  heat_capacity:      85.8722299
  energy:             25.5134211

- temperature:       250.0000000
  free_energy:        -7.9774886
  entropy:           137.4120766
  heat_capacity:      86.5384365
  energy:             26.3755306

- temperature:       260.0000000
  free_energy:        -9.3687311
  entropy:           140.8181162
  heat_capacity:      87.1413637
  energy:             27.2439791

- temperature:       270.0000000
  free_energy:       -10.7934947
  entropy:           144.1172829
  heat_capacity:      87.6884088
  energy:             28.1181717

- temperature:       280.0000000
  free_energy:       -12.2507401
  entropy:           147.3154377
  heat_capacity:      88.1859772
  energy:             28.9975824

- temperature:       290.0000000
  free_energy:       -13.7394850
  entropy:           150.4180341
  heat_capacity:      88.6396269
  energy:             29.8817449

- temperature:       300.0000000
  free_energy:       -15.2587992
  entropy:           153.4301466
  heat_capacity:      89.0541912
  energy:             30.7702447

- temperature:       310.0000000
  free_energy:       -16.8078021
  entropy:           156.3564988
  heat_capacity:      89.4338835
  energy:             31.6627126

- temperature:       320.0000000
  free_energy:       -18.3856580
  entropy:           159.2014892
  heat_capacity:      89.7823853
  energy:             32.5588185

- temperature:       330.0000000
  free_energy:       -19.9915743
  entropy:           161.9692164
  heat_capacity:      90.1029218
  energy:             33.4582671

- temperature:       340.0000000
  free_energy:       -21.6247976
  entropy:           164.6635023
  heat_capacity:      90.3983249
  energy:             34.3607932

- temperature:       350.0000000
  free_energy:       -23.2846115
  entropy:           167.2879133
  heat_capacity:      90.6710874
  energy:             35.2661582

- temperature:       360.0000000
  free_energy:       -24.9703341
  entropy:           169.8457803
  heat_capacity:      90.9234094
  energy:             36.1741468

- temperature:       370.0000000
  free_energy:       -26.6813157
  entropy:           172.3402173
  heat_capacity:      91.1572368
  energy:             37.0845647

- temperature:       380.0000000
  free_energy:       -28.4169367
  entropy:           174.7741379
  heat_capacity:      91.3742949
  energy:             37.9972357

- temperature:       390.0000000
  free_energy:       -30.1766058
  entropy:           177.1502710
  heat_capacity:      91.5761171
  energy:             38.9119998

- temperature:       400.0000000
  free_energy:       -31.9597581
  entropy:           179.4711747
  heat_capacity:      91.7640691
  energy:             39.8287118

- temperature:       410.0000000
  free_energy:       -33.7658532
  entropy:           181.7392496
  heat_capacity:      91.9393701
  energy:             40.7472391

- temperature:       420.0000000
  free_energy:       -35.5943745
  entropy:           183.9567504
  heat_capacity:      92.1031107
  energy:             41.6674607

- temperature:       430.0000000
  free_energy:       -37.4448268
  entropy:           186.1257972
  heat_capacity:      92.2562688
  energy:             42.5892660

- temperature:       440.0000000
  free_energy:       -39.3167356
  entropy:           188.2483848
  heat_capacity:      92.3997225
  energy:             43.5125537

- temperature:       450.0000000
  free_energy:       -41.2096459
  entropy:           190.3263925
  heat_capacity:      92.5342623
  energy:             44.4372308

- temperature:       460.0000000
  free_energy:       -43.1231207
  entropy:           192.3615922
  heat_capacity:      92.6606013
  energy:             45.3632116

- temperature:       470.0000000
  free_energy:       -45.0567406
  entropy:           194.3556558
  heat_capacity:      92.7793833
  energy:             46.2904176

- temperature:       480.0000000
  free_energy:       -47.0101020
  entropy:           196.3101627
  heat_capacity:      92.8911914
  energy:             47.2187761

- temperature:       490.0000000
  free_energy:       -48.9828170
  entropy:           198.2266060
  heat_capacity:      92.9965542
  energy:             48.1482200

- temperature:       500.0000000
  free_energy:       -50.9745120
  entropy:           200.1063985
  heat_capacity:      93.0959516
  energy:             49.0786873

- temperature:       510.0000000
  free_energy:       -52.9848272
  entropy:           201.9508781
  heat_capacity:      93.1898204
  energy:             50.0101206

- temperature:       520.0000000
  free_energy:       -55.0134161
  entropy:           203.7613128
  heat_capacity:      93.2785586
  energy:             50.9424666

- temperature:       530.0000000
  free_energy:       -57.0599440
  entropy:           205.5389055
  heat_capacity:      93.3625293
  energy:             51.8756759

- temperature:       540.0000000
  free_energy:       -59.1240885
  entropy:           207.2847980
  heat_capacity:      93.4420646
  energy:             52.8097024

- temperature:       550.0000000
  free_energy:       -61.2055380
  entropy:           209.0000751
  heat_capacity:      93.5174683
  energy:             53.7445034

- temperature:       560.0000000
  free_energy:       -63.3039914
  entropy:           210.6857684
  heat_capacity:      93.5890189
  energy:             54.6800389

- temperature:       570.0000000
  free_energy:       -65.4191580
  entropy:           212.3428592
  heat_capacity:      93.6569722
  energy:             55.6162718

- temperature:       580.0000000
  free_energy:       -67.5507564
  entropy:           213.9722819
  heat_capacity:      93.7215631
  energy:             56.5531672

- temperature:       590.0000000
  free_energy:       -69.6985144
  entropy:           215.5749270
  heat_capacity:      93.7830080
  energy:             57.4906925

- temperature:       600.0000000
  free_energy:       -71.8621685
  entropy:           217.1516433
  heat_capacity:      93.8415061
  energy:             58.4288175

- temperature:       610.0000000
  free_energy:       -74.0414635
  entropy:           218.7032409
  heat_capacity:      93.8972416
  energy:             59.3675135

- temperature:       620.0000000
  free_energy:       -76.2361522
  entropy:           220.2304933
  heat_capacity:      93.9503842
  energy:             60.3067537

- temperature:       630.0000000
  free_energy:       -78.4459947
  entropy:           221.7341392
  heat_capacity:      94.0010911
  energy:             61.2465130

- temperature:       640.0000000
  free_energy:       -80.6707586
  entropy:           223.2148851
  heat_capacity:      94.0495078
  energy:             62.1867679

- temperature:       650.0000000
  free_energy:       -82.9102183
  entropy:           224.6734066
  heat_capacity:      94.0957693
  energy:             63.1274960

- temperature:       660.0000000
  free_energy:       -85.1641548
  entropy:           226.1103505
  heat_capacity:      94.1400006
  energy:             64.0686765

- temperature:       670.0000000
  free_energy:       -87.4323555
  entropy:           227.5263360
  heat_capacity:      94.1823182
  energy:             65.0102896

- temperature:       680.0000000
  free_energy:       -89.7146137
  entropy:           228.9219566
  heat_capacity:      94.2228300
  energy:             65.9523168

- temperature:       690.0000000
  free_energy:       -92.0107286
  entropy:           230.2977814
  heat_capacity:      94.2616368
  energy:             66.8947405

- temperature:       700.0000000
  free_energy:       -94.3205051
  entropy:           231.6543562
  heat_capacity:      94.2988323
  energy:             67.8375442

- temperature:       710.0000000
  free_energy:       -96.6437533
  entropy:           232.9922048
  heat_capacity:      94.3345040
  energy:             68.7807121

- temperature:       720.0000000
  free_energy:       -98.9802885
  entropy:           234.3118305
  heat_capacity:      94.3687336
  energy:             69.7242295

- temperature:       730.0000000
  free_energy:      -101.3299308
  entropy:           235.6137165
  heat_capacity:      94.4015972
  energy:             70.6680822

- temperature:       740.0000000
  free_energy:      -103.6925052
  entropy:           236.8983275
  heat_capacity:      94.4331662
  energy:             71.6122571

- temperature:       750.0000000
  free_energy:      -106.0678413
  entropy:           238.1661103
  heat_capacity:      94.4635074
  energy:             72.5567415

- temperature:       760.0000000
  free_energy:      -108.4557728
  entropy:           239.4174949
  heat_capacity:      94.4926833
  energy:             73.5015234

- temperature:       770.0000000
  free_energy:      -110.8561379
  entropy:           240.6528952
  heat_capacity:      94.5207525
  energy:             74.4465914

- temperature:       780.0000000
  free_energy:      -113.2687787
  entropy:           241.8727098
  heat_capacity:      94.5477700
  energy:             75.3919349

- temperature:       790.0000000
  free_energy:      -115.6935414
  entropy:           243.0773227
  heat_capacity:      94.5737874
  energy:             76.3375435

- temperature:       800.0000000
  free_energy:      -118.1302757
  entropy:           244.2671040
  heat_capacity:      94.5988534
  energy:             77.2834075

- temperature:       810.0000000
  free_energy:      -120.5788352
  entropy:           245.4424109
  heat_capacity:      94.6230134
  energy:             78.2295176

- temperature:       820.0000000
  free_energy:      -123.0390769
  entropy:           246.6035875
  heat_capacity:      94.6463105
  energy:             79.1758649

- temperature:       830.0000000
  free_energy:      -125.5108610
  entropy:           247.7509663
  heat_capacity:      94.6687851
  energy:             80.1224410

- temperature:       840.0000000
  free_energy:      -127.9940513
  entropy:           248.8848681
  heat_capacity:      94.6904753
  energy:             81.0692380

- temperature:       850.0000000
  free_energy:      -130.4885145
  entropy:           250.0056029
  heat_capacity:      94.7114170
  energy:             82.0162480

- temperature:       860.0000000
  free_energy:      -132.9941204
  entropy:           251.1134702
  heat_capacity:      94.7316441
  energy:             82.9634639

- temperature:       870.0000000
  free_energy:      -135.5107419
  entropy:           252.2087593
  heat_capacity:      94.7511886
  energy:             83.9108786

- temperature:       880.0000000
  free_energy:      -138.0382546
  entropy:           253.2917502
  heat_capacity:      94.7700809
  energy:             84.8584855

- temperature:       890.0000000
  free_energy:      -140.5765369
  entropy:           254.3627135
  heat_capacity:      94.7883494
  energy:             85.8062782

- temperature:       900.0000000
  free_energy:      -143.1254697
  entropy:           255.4219113
  heat_capacity:      94.8060213
  energy:             86.7542505

- temperature:       910.0000000
  free_energy:      -145.6849367
  entropy:           256.4695972
  heat_capacity:      94.8231222
  energy:             87.7023967

- temperature:       920.0000000
  free_energy:      -148.2548241
  entropy:           257.5060165
  heat_capacity:      94.8396762
  energy:             88.6507111

- temperature:       930.0000000
  free_energy:      -150.8350203
  entropy:           258.5314073
  heat_capacity:      94.8557065
  energy:             89.5991885

- temperature:       940.0000000
  free_energy:      -153.4254162
  entropy:           259.5459998
  heat_capacity:      94.8712348
  energy:             90.5478236

- temperature:       950.0000000
  free_energy:      -156.0259050
  entropy:           260.5500175
  heat_capacity:      94.8862817
  energy:             91.4966116

- temperature:       960.0000000
  free_energy:      -158.6363820
  entropy:           261.5436768
  heat_capacity:      94.9008669
  energy:             92.4455477

- temperature:       970.0000000
  free_energy:      -161.2567447
  entropy:           262.5271878
  heat_capacity:      94.9150090
  energy:             93.3946274

- temperature:       980.0000000
  free_energy:      -163.8868926
  entropy:           263.5007542
  heat_capacity:      94.9287258
  energy:             94.3438465

- temperature:       990.0000000
  free_energy:      -166.5267273
  entropy:           264.4645737
  heat_capacity:      94.9420341
  energy:             95.2932006

- temperature:      1000.0000000
  free_energy:      -169.1761523
  entropy:           265.4188381
  heat_capacity:      94.9549499
  energy:             96.2426858
