# Thermal properties / unit cell (natom)

unit:
  temperature:   K
  free_energy:   kJ/mol
  entropy:       J/K/mol
  heat_capacity: J/K/mol

natom: 20   
cutoff_frequency: 0.00000
num_modes: 152100
num_integrated_modes: 152100

zero_point_energy:      67.5979741

thermal_properties:
- temperature:         0.0000000
  free_energy:        67.5979741
  entropy:             0.0000000
  heat_capacity:       0.0000000
  energy:             67.5979741

- temperature:        10.0000000
  free_energy:        67.5909097
  entropy:             2.6066346
  heat_capacity:       8.2601886
  energy:             67.6169760

- temperature:        20.0000000
  free_energy:        67.4897721
  entropy:            20.9317620
  heat_capacity:      55.2045965
  energy:             67.9084074

- temperature:        30.0000000
  free_energy:        67.1233306
  entropy:            53.7469625
  heat_capacity:     108.2159643
  energy:             68.7357394

- temperature:        40.0000000
  free_energy:        66.4025913
  entropy:            90.4901531
  heat_capacity:     146.8031577
  energy:             70.0221975

- temperature:        50.0000000
  free_energy:        65.3165809
  entropy:           126.4331834
  heat_capacity:     175.2972448
  energy:             71.6382401

- temperature:        60.0000000
  free_energy:        63.8800442
  entropy:           160.5735836
  heat_capacity:     199.5738003
  energy:             73.5144593

- temperature:        70.0000000
  free_energy:        62.1105936
  entropy:           193.0718196
  heat_capacity:     222.5501946
  energy:             75.6256210

- temperature:        80.0000000
  free_energy:        60.0229615
  entropy:           224.2601214
  heat_capacity:     244.9900050
  energy:             77.9637712

- temperature:        90.0000000
  free_energy:        57.6289429
  entropy:           254.3790761
  heat_capacity:     266.7157838
  energy:             80.5230597

- temperature:       100.0000000
  free_energy:        54.9385031
  entropy:           283.5586758
  heat_capacity:     287.3300943
  energy:             83.2943707

- temperature:       110.0000000
  free_energy:        51.9607063
  entropy:           311.8560178
  heat_capacity:     306.5116391
  energy:             86.2648683

- temperature:       120.0000000
  free_energy:        48.7042543
  entropy:           339.2914993
  heat_capacity:     324.0868186
  energy:             89.4192342

- temperature:       130.0000000
  free_energy:        45.1777260
  entropy:           365.8720819
  heat_capacity:     340.0125886
  energy:             92.7410966

- temperature:       140.0000000
  free_energy:        41.3896435
  entropy:           391.6035556
  heat_capacity:     354.3367069
  energy:             96.2141413

- temperature:       150.0000000
  free_energy:        37.3484528
  entropy:           416.4958331
  heat_capacity:     367.1607835
  energy:             99.8228278

- temperature:       160.0000000
  free_energy:        33.0624730
  entropy:           440.5644373
  heat_capacity:     378.6129234
  energy:            103.5527830

- temperature:       170.0000000
  free_energy:        28.5398408
  entropy:           463.8301645
  heat_capacity:     388.8297186
  energy:            107.3909688

- temperature:       180.0000000
  free_energy:        23.7884629
  entropy:           486.3180277
  heat_capacity:     397.9453952
  energy:            111.3257079

- temperature:       190.0000000
  free_energy:        18.8159800
  entropy:           508.0560383
  heat_capacity:     406.0858662
  energy:            115.3466273

- temperature:       200.0000000
  free_energy:        13.6297422
  entropy:           529.0740820
  heat_capacity:     413.3659245
  energy:            119.4445586

- temperature:       210.0000000
  free_energy:         8.2367955
  entropy:           549.4029814
  heat_capacity:     419.8883403
  energy:            123.6114216

- temperature:       220.0000000
  free_energy:         2.6438762
  entropy:           569.0737637
  heat_capacity:     425.7440465
  energy:            127.8401042

- temperature:       230.0000000
  free_energy:        -3.1425884
  entropy:           588.1171125
  heat_capacity:     431.0129007
  energy:            132.1243475

- temperature:       240.0000000
  free_energy:        -9.1164745
  entropy:           606.5629762
  heat_capacity:     435.7647090
  energy:            136.4586398

- temperature:       250.0000000
  free_energy:       -15.2719529
  entropy:           624.4402993
  heat_capacity:     440.0603302
  energy:            140.8381219

- temperature:       260.0000000
  free_energy:       -21.6034781
  entropy:           641.7768509
  heat_capacity:     443.9527572
  energy:            145.2585031

- temperature:       270.0000000
  free_energy:       -28.1057758
  entropy:           658.5991235
  heat_capacity:     447.4881242
  energy:            149.7159875

- temperature:       280.0000000
  free_energy:       -34.7738303
  entropy:           674.9322867
  heat_capacity:     450.7066148
  energy:            154.2072099

- temperature:       290.0000000
  free_energy:       -41.6028708
  entropy:           690.8001781
  heat_capacity:     453.6432666
  energy:            158.7291808

- temperature:       300.0000000
  free_energy:       -48.5883582
  entropy:           706.2253214
  heat_capacity:     456.3286741
  energy:            163.2792382

- temperature:       310.0000000
  free_energy:       -55.7259724
  entropy:           721.2289638
  heat_capacity:     458.7895974
  energy:            167.8550064

- temperature:       320.0000000
  free_energy:       -63.0115993
  entropy:           735.8311241
  heat_capacity:     461.0494877
  energy:            172.4543604

- temperature:       330.0000000
  free_energy:       -70.4413195
  entropy:           750.0506500
  heat_capacity:     463.1289378
  energy:            177.0753950

- temperature:       340.0000000
  free_energy:       -78.0113961
  entropy:           763.9052778
  heat_capacity:     465.0460694
  energy:            181.7163983

- temperature:       350.0000000
  free_energy:       -85.7182645
  entropy:           777.4116950
  heat_capacity:     466.8168637
  energy:            186.3758288

- temperature:       360.0000000
  free_energy:       -93.5585218
  entropy:           790.5856023
  heat_capacity:     468.4554455
  energy:            191.0522951

- temperature:       370.0000000
  free_energy:      -101.5289175
  entropy:           803.4417739
  heat_capacity:     469.9743261
  energy:            195.7445388

- temperature:       380.0000000
  free_energy:      -109.6263446
  entropy:           815.9941166
  heat_capacity:     471.3846122
  energy:            200.4514197

- temperature:       390.0000000
  free_energy:      -117.8478308
  entropy:           828.2557255
  heat_capacity:     472.6961846
  energy:            205.1719021

- temperature:       400.0000000
  free_energy:      -126.1905312
  entropy:           840.2389375
  heat_capacity:     473.9178525
  energy:            209.9050438

- temperature:       410.0000000
  free_energy:      -134.6517204
  entropy:           851.9553811
  heat_capacity:     475.0574860
  energy:            214.6499858

- temperature:       420.0000000
  free_energy:      -143.2287862
  entropy:           863.4160235
  heat_capacity:     476.1221310
  energy:            219.4059437

- temperature:       430.0000000
  free_energy:      -151.9192228
  entropy:           874.6312149
  heat_capacity:     477.1181079
  energy:            224.1721996

- temperature:       440.0000000
  free_energy:      -160.7206250
  entropy:           885.6107293
  heat_capacity:     478.0510976
  energy:            228.9480959

- temperature:       450.0000000
  free_energy:      -169.6306826
  entropy:           896.3638030
  heat_capacity:     478.9262161
  energy:            233.7330287

- temperature:       460.0000000
  free_energy:      -178.6471754
  entropy:           906.8991699
  heat_capacity:     479.7480789
  energy:            238.5264428

- temperature:       470.0000000
  free_energy:      -187.7679679
  entropy:           917.2250950
  heat_capacity:     480.5208580
  energy:            243.3278268

- temperature:       480.0000000
  free_energy:      -196.9910053
  entropy:           927.3494047
  heat_capacity:     481.2483309
  energy:            248.1367090

- temperature:       490.0000000
  free_energy:      -206.3143087
  entropy:           937.2795154
  heat_capacity:     481.9339238
  energy:            252.9526538

- temperature:       500.0000000
  free_energy:      -215.7359717
  entropy:           947.0224600
  heat_capacity:     482.5807497
  energy:            257.7752583

- temperature:       510.0000000
  free_energy:      -225.2541563
  entropy:           956.5849125
  heat_capacity:     483.1916413
  energy:            262.6041490

- temperature:       520.0000000
  free_energy:      -234.8670895
  entropy:           965.9732105
  heat_capacity:     483.7691808
  energy:            267.4389799

- temperature:       530.0000000
  free_energy:      -244.5730601
  entropy:           975.1933764
  heat_capacity:     484.3157250
  energy:            272.2794294

- temperature:       540.0000000
  free_energy:      -254.3704157
  entropy:           984.2511371
  heat_capacity:     484.8334288
  energy:            277.1251983

- temperature:       550.0000000
  free_energy:      -264.2575597
  entropy:           993.1519420
  heat_capacity:     485.3242651
  energy:            281.9760084

- temperature:       560.0000000
  free_energy:      -274.2329487
  entropy:          1001.9009800
  heat_capacity:     485.7900428
  energy:            286.8316001

- temperature:       570.0000000
  free_energy:      -284.2950899
  entropy:          1010.5031951
  heat_capacity:     486.2324224
  energy:            291.6917313

- temperature:       580.0000000
  free_energy:      -294.4425389
  entropy:          1018.9633010
  heat_capacity:     486.6529307
  energy:            296.5561757

- temperature:       590.0000000
  free_energy:      -304.6738973
  entropy:          1027.2857948
  heat_capacity:     487.0529731
  energy:            301.4247217

- temperature:       600.0000000
  free_energy:      -314.9878104
  entropy:          1035.4749695
  heat_capacity:     487.4338450
  energy:            306.2971712

- temperature:       610.0000000
  free_energy:      -325.3829659
  entropy:          1043.5349256
  heat_capacity:     487.7967417
  energy:            311.1733387

- temperature:       620.0000000
  free_energy:      -335.8580913
  entropy:          1051.4695825
  heat_capacity:     488.1427675
  energy:            316.0530498

- temperature:       630.0000000
  free_energy:      -346.4119524
  entropy:          1059.2826883
  heat_capacity:     488.4729441
  energy:            320.9361412

- temperature:       640.0000000
  free_energy:      -357.0433519
  entropy:          1066.9778296
  heat_capacity:     488.7882176
  energy:            325.8224591

- temperature:       650.0000000
  free_energy:      -367.7511273
  entropy:          1074.5584401
  heat_capacity:     489.0894648
  energy:            330.7118588

- temperature:       660.0000000
  free_energy:      -378.5341499
  entropy:          1082.0278094
  heat_capacity:     489.3774998
  energy:            335.6042043

- temperature:       670.0000000
  free_energy:      -389.3913232
  entropy:          1089.3890903
  heat_capacity:     489.6530787
  energy:            340.4993673

- temperature:       680.0000000
  free_energy:      -400.3215815
  entropy:          1096.6453062
  heat_capacity:     489.9169047
  energy:            345.3972267

- temperature:       690.0000000
  free_energy:      -411.3238888
  entropy:          1103.7993582
  heat_capacity:     490.1696325
  energy:            350.2976684

- temperature:       700.0000000
  free_energy:      -422.3972374
  entropy:          1110.8540312
  heat_capacity:     490.4118718
  energy:            355.2005844

- temperature:       710.0000000
  free_energy:      -433.5406471
  entropy:          1117.8119998
  heat_capacity:     490.6441917
  energy:            360.1058728

- temperature:       720.0000000
  free_energy:      -444.7531636
  entropy:          1124.6758341
  heat_capacity:     490.8671233
  energy:            365.0134370

- temperature:       730.0000000
  free_energy:      -456.0338582
  entropy:          1131.4480052
  heat_capacity:     491.0811626
  energy:            369.9231856

- temperature:       740.0000000
  free_energy:      -467.3818261
  entropy:          1138.1308895
  heat_capacity:     491.2867739
  energy:            374.8350321

- temperature:       750.0000000
  free_energy:      -478.7961860
  entropy:          1144.7267739
  heat_capacity:     491.4843913
  energy:            379.7488944

- temperature:       760.0000000
  free_energy:      -490.2760789
  entropy:          1151.2378600
  heat_capacity:     491.6744219
  energy:            384.6646947

- temperature:       770.0000000
  free_energy:      -501.8206676
  entropy:          1157.6662682
  heat_capacity:     491.8572470
  energy:            389.5823589

- temperature:       780.0000000
  free_energy:      -513.4291355
  entropy:          1164.0140414
  heat_capacity:     492.0332245
  energy:            394.5018168

- temperature:       790.0000000
  free_energy:      -525.1006862
  entropy:          1170.2831492
  heat_capacity:     492.2026905
  energy:            399.4230016

- temperature:       800.0000000
  free_energy:      -536.8345426
  entropy:          1176.4754907
  heat_capacity:     492.3659608
  energy:            404.3458499

- temperature:       810.0000000
  free_energy:      -548.6299463
  entropy:          1182.5928981
  heat_capacity:     492.5233323
  energy:            409.2703012

- temperature:       820.0000000
  free_energy:      -560.4861567
  entropy:          1188.6371397
  heat_capacity:     492.6750846
  energy:            414.1962979

- temperature:       830.0000000
  free_energy:      -572.4024509
  entropy:          1194.6099228
  heat_capacity:     492.8214808
  energy:            419.1237850

- temperature:       840.0000000
  free_energy:      -584.3781225
  entropy:          1200.5128963
  heat_capacity:     492.9627690
  energy:            424.0527104

- temperature:       850.0000000
  free_energy:      -596.4124814
  entropy:          1206.3476537
  heat_capacity:     493.0991830
  energy:            428.9830242

- temperature:       860.0000000
  free_energy:      -608.5048533
  entropy:          1212.1157348
  heat_capacity:     493.2309437
  energy:            433.9146786

- temperature:       870.0000000
  free_energy:      -620.6545788
  entropy:          1217.8186288
  heat_capacity:     493.3582593
  energy:            438.8476282

- temperature:       880.0000000
  free_energy:      -632.8610134
  entropy:          1223.4577762
  heat_capacity:     493.4813268
  energy:            443.7818296

- temperature:       890.0000000
  free_energy:      -645.1235265
  entropy:          1229.0345705
  heat_capacity:     493.6003325
  energy:            448.7172412

- temperature:       900.0000000
  free_energy:      -657.4415015
  entropy:          1234.5503609
  heat_capacity:     493.7154523
  energy:            453.6538233

- temperature:       910.0000000
  free_energy:      -669.8143348
  entropy:          1240.0064534
  heat_capacity:     493.8268532
  energy:            458.5915379

- temperature:       920.0000000
  free_energy:      -682.2414358
  entropy:          1245.4041134
  heat_capacity:     493.9346929
  energy:            463.5303485

- temperature:       930.0000000
  free_energy:      -694.7222263
  entropy:          1250.7445664
  heat_capacity:     494.0391212
  energy:            468.4702204

- temperature:       940.0000000
  free_energy:      -707.2561404
  entropy:          1256.0290004
  heat_capacity:     494.1402798
  energy:            473.4111200

- temperature:       950.0000000
  free_energy:      -719.8426235
  entropy:          1261.2585673
  heat_capacity:     494.2383036
  energy:            478.3530155

- temperature:       960.0000000
  free_energy:      -732.4811326
  entropy:          1266.4343840
  heat_capacity:     494.3333201
  energy:            483.2958761

- temperature:       970.0000000
  free_energy:      -745.1711356
  entropy:          1271.5575339
  heat_capacity:     494.4254508
  energy:            488.2396723

- temperature:       980.0000000
  free_energy:      -757.9121112
  entropy:          1276.6290684
  heat_capacity:     494.5148111
  energy:            493.1843759

- temperature:       990.0000000
  free_energy:      -770.7035483
  entropy:          1281.6500080
  heat_capacity:     494.6015104
  energy:            498.1299597

- temperature:      1000.0000000
  free_energy:      -783.5449460
  entropy:          1286.6213436
  heat_capacity:     494.6856532
  energy:            503.0763976
