6
Lattice="4.012488705873032 -0.024847272585080033 -0.00023166359314782942 -1.9727806436304922 4.786198908478825 -1.6748375347902504 -0.004313485431127304 0.12857215783502618 5.829533523174589" Properties=species:S:1:pos:R:3:forces:R:3 structure_index=0 total_energy=-17.448429107666016 stress="0.049866415560245514 0.012961152009665966 -0.016425402835011482 0.01296116504818201 0.0578962005674839 -0.023321671411395073 -0.016425548121333122 -0.02332163229584694 0.0489593930542469" pbc="T T T"
Li       2.56989348       1.67389037      -0.04993981       0.00099815      -0.01636657       0.01034532
Li       0.57306384       3.47543948       4.18509894      -0.00196360      -0.00699004      -0.01480551
Ga       0.54983807       0.17799465       4.40987971       0.00288170       0.00716458      -0.02515635
Ga      -1.42180208       4.76867920      -0.28939089       0.00245562       0.02467789       0.00586013
Ga       0.57667879       3.45423611       1.19175332      -0.00585700      -0.00312474       0.01929652
Sn       2.56785689       1.76743163       2.81179343       0.00148511      -0.00536111       0.00445991
4
Lattice="4.062650595060567 -0.0016038386041968627 -0.0003076592189618848 0.00166031541060959 4.061850625180222 0.000720091917510366 0.0002614588044369411 -0.0006137157554498305 4.434294791269763" Properties=species:S:1:pos:R:3:forces:R:3 structure_index=1 total_energy=-11.800222396850586 stress="0.09959273040294647 0.0004985214909538627 -0.00023737344599794596 0.0004985485575161874 0.09564326703548431 0.000553805090021342 -0.00023714899725746363 0.0005537867546081543 -0.02089695818722248" pbc="T T T"
Li       0.87272430       2.94108110       2.62452460      -0.00034976      -0.00013088       0.00002480
Li       2.90333506       0.90927395       2.62412009      -0.00030507      -0.00050900      -0.00018034
Ga       0.87175753       0.91072809       0.40706816      -0.00136737      -0.00321381      -0.00000796
Sn       2.90343927       2.93984248       0.40722354       0.00202221       0.00385367       0.00016349
12
Lattice="4.230287159319439 -0.00011094885102907515 0.000662913579394526 -2.11480367478996 4.783189100979634 -0.5865276450000101 -0.0007592825854844823 -1.993482868086727 11.888074422322651" Properties=species:S:1:pos:R:3:forces:R:3 structure_index=2 total_energy=-35.83753204345703 stress="0.022170253098011017 0.0004543872200883925 0.000841015949845314 0.00045415826025418937 0.012408675625920296 0.005565678235143423 0.0008410308510065079 0.005565703846514225 0.023759353905916214" pbc="T T T"
Li       1.53930332       2.21501510       0.98737554      -0.00009529      -0.00431199       0.00305169
Li       1.53864274       1.82263508       4.00376073       0.00041463       0.01770878       0.02539500
Li       3.65370446      -0.12636642       5.20591980      -0.00038656      -0.00567754      -0.00569471
Li       1.53808992       0.67124752       9.74372385       0.00069287      -0.01170095      -0.02977392
Ga       3.65347365      -1.03647048      10.99904344      -0.00014245      -0.00143689      -0.01441526
Ga      -0.57712845       2.58142337       8.65084637       0.00080736      -0.00152803      -0.00556210
Ga      -0.57654315       2.99884817       5.64129899      -0.00043083       0.00189840       0.02246797
Ga       3.65365356      -0.60033272       8.16359293      -0.00154456      -0.00981399      -0.02776083
Ga      -0.57596932       3.52623663       2.85530936       0.00016495       0.00474724       0.01490157
Sn       3.65436913       0.53062284       2.37313115      -0.00066335      -0.00752509      -0.03791232
Sn       1.53774183       1.21456256       6.86987571       0.00161575       0.00821170       0.01748094
Sn      -0.57639637       1.93091704      11.55376233      -0.00043252       0.00942835       0.03782196
4
Lattice="4.257260589169386 -0.00031172487749372437 2.4590902528157206 1.418666073621968 4.012599140592952 2.4573458992500523 -0.0004066175882637822 -0.0006478556918236166 4.915124002316107" Properties=species:S:1:pos:R:3:forces:R:3 structure_index=3 total_energy=-11.844108581542969 stress="0.028532691299915314 -0.0004325968329794705 0.001422355999238789 -0.0004323670291341841 0.022813791409134865 0.006841881666332483 0.0014225621707737446 0.006841815076768398 0.02960004098713398" pbc="T T T"
Li       5.09187123       3.26081522       7.66008891       0.00141068      -0.00010026       0.00052759
Ga       3.67417432       2.25754080       5.20394428      -0.00013307       0.00061359      -0.00157537
Ga       2.25590213       1.25545083       2.74543024      -0.00026748      -0.00137763      -0.00173337
Sn       0.83643649       0.25131506       5.20094850      -0.00101010       0.00086429       0.00278115
10
Lattice="4.066810560642649 -7.52251105822004e-05 0.007580357964930373 2.033806857809282 4.945875499661008 0.10160511265296462 -0.017237354455878425 -0.25837278402895364 9.22840789446692" Properties=species:S:1:pos:R:3:forces:R:3 structure_index=4 total_energy=-29.215444564819336 stress="0.0019342858577147126 0.0003249627770856023 -0.00035326997749507427 0.00032491987803950906 0.015568921342492104 0.020194290205836296 -0.00035307076177559793 0.02019410952925682 0.01091319601982832" pbc="T T T"
Li       4.78634893       4.26628226       4.03988395      -0.00017464       0.00747875       0.00907235
Li       2.74339919       4.14292356       8.65192225       0.00117049       0.00360983       0.00926261
Li       4.79356857       2.35876500       0.28484027      -0.00120159      -0.00490495      -0.01286675
Li       2.75122073       2.22940840       4.89476197      -0.00054926      -0.00554362      -0.01005159
Ga       0.71518103       0.30743735       5.73221580       0.00119403      -0.00141271       0.03442404
Ga       0.72149509       1.24475072       3.09310669      -0.00131139       0.00133201      -0.03402607
Ga       2.74555469       1.12449811       7.71274375      -0.00063398      -0.00318644      -0.03389136
Ga       2.75776143       0.42993701       1.12118410       0.00034980       0.00303160       0.03387905
Sn       4.78052129       3.18993035       6.77700388       0.00044492      -0.00341894       0.00009542
Sn       2.75631073       3.30947248       2.15739484       0.00071166       0.00301445       0.00410229
18
Lattice="4.333594078962467 0.005186367725858182 1.040927108066685 -0.7799952278941181 7.1428040024766375 3.214094206579858 0.007630728847549449 0.06791032382073975 9.511273925535614" Properties=species:S:1:pos:R:3:forces:R:3 structure_index=5 total_energy=-49.031551361083984 stress="-0.01001360546797514 -0.00046075278078205884 0.00362006900832057 -0.0004605452995747328 0.017354751005768776 0.005997197236865759 0.003619861789047718 0.005997010041028261 -0.016985462978482246" pbc="T T T"
Li       2.92341244       4.25697337      10.12571026      -0.00214330       0.02347646       0.00935251
Li      -0.16239627       3.76223272       3.90207660      -0.00069406      -0.01223714      -0.00237851
Li       2.88126820       7.00604386      10.29690679      -0.00234391       0.00676427       0.00476845
Li       2.35503885       2.86702281       2.96108458       0.00580223      -0.01846338      -0.02342988
Li       0.43721796       4.89544818      10.93314372       0.00406932       0.00490181      -0.00452460
Li      -0.24346959       6.54091617       4.22196970      -0.00040143      -0.00244375       0.00027644
Li       1.06490279       3.29420610       8.32479711      -0.00320928      -0.00658993       0.01915170
Li       1.65174619       4.59214928       5.88800433      -0.00656515      -0.00270129       0.02899616
Li       2.39057061       0.14155937       2.82324590       0.00048708      -0.00135979      -0.00602060
Li       1.12573836       0.49158193       8.09205175       0.00315562      -0.01208493      -0.01210896
Li      -0.08233325       0.91065335       3.56717246      -0.00005167      -0.00509912       0.00580110
Ga       3.54307897       2.71356046       7.55347021       0.00611902       0.00630753      -0.04331128
Ga       0.48957400       2.11688894       1.18938704      -0.00008104      -0.00440528      -0.00486675
Ga       3.51204414       5.36968125       7.68287180      -0.00169575       0.00985654      -0.00162265
Ga       1.02259102       5.95814997       8.50058374      -0.00111893       0.04670525       0.00633325
Ga       2.98140542       1.55178718       9.90055364       0.00003313      -0.04240984       0.00695228
Sn       1.73549404       1.77345833       5.53531094       0.00255305      -0.01920372       0.01313017
Sn       2.26675324       5.67695018       3.31702215      -0.00391492       0.02898637       0.00350131
20
Lattice="6.977760458699762 -0.10593470729468699 -1.7726847558085432 -3.0938558624860457 6.744805247135543 -2.1499201279492035 0.25592212637939576 0.173534059892422 8.56577042929882" Properties=species:S:1:pos:R:3:forces:R:3 structure_index=6 total_energy=-59.85165786743164 stress="-0.003421087982133031 0.00017438041686546057 -0.0009047196363098919 0.0001744779438013211 -0.005346003919839859 -1.0394355740572792e-05 -0.0009051067172549665 -1.0301968359271996e-05 -0.005739174783229828" pbc="T T T"
Li       0.49675814       1.51476662      -0.15209330      -0.01592601      -0.00577096      -0.00534218
Li       3.00827559       2.91823130      -0.97649570       0.00033736      -0.01273245       0.01219600
Li       4.81243841       0.83999726       3.95860206       0.02100148       0.00222675      -0.00847289
Li       0.96438634       4.76540682      -0.13685799       0.01114091       0.01939140      -0.00361106
Li       0.26571220       1.89843055       3.70588770      -0.01729871      -0.00959780       0.04303885
Li       3.49842590       5.54997852      -2.39747022      -0.02684562      -0.01835152       0.00323049
Li       5.15168606       3.61710153       2.67518137       0.00072195       0.01290273       0.00026016
Li       0.74033583       5.03626118       3.45891739       0.00584173       0.00694450      -0.01707008
Ga       3.61807306       5.92719618       3.31044202       0.00994162       0.00103778      -0.00673836
Ga      -0.89390230       6.66741748       0.63893326       0.00301342       0.01181969       0.00158163
Ga       3.01288216       3.52287535       4.40456929       0.00171302      -0.00661016      -0.01553496
Ga      -1.04247477       3.68410172       1.70243611       0.01843145      -0.02010964      -0.00487387
Ga       4.95463657       0.58994648       6.85066671       0.00468228       0.00006593      -0.00715698
Ga       0.89442594       3.52549790       5.97108046       0.01699643       0.02036637       0.00821841
Sn       2.20598742       0.87167241       5.66989493       0.00411727       0.00539850       0.00808834
Sn       4.61432723       1.07500314       1.03701134       0.00158865       0.01599043      -0.00545820
Sn      -0.55936933       6.07834035       6.21292558       0.00285901       0.00451440       0.01289124
Sn       5.50271348       3.19765549       5.78683674       0.00328029      -0.00849344      -0.00943298
Sn       2.15110391       2.80531358       1.80712063      -0.04928621      -0.00354201      -0.00251049
Sn       3.81756048       5.50057142       0.52146157       0.00368966      -0.01545051      -0.00330304
4
Lattice="4.439904593588713 0.0010436601730804908 -0.0007112730942594983 -0.0007793032859450977 4.061507034766752 -0.002734983413249618 0.0008074628043963654 0.00166542864506443 4.061495516339041" Properties=species:S:1:pos:R:3:forces:R:3 structure_index=7 total_energy=-11.800235748291016 stress="0.043300043791532516 0.0005766357644461095 0.0005432839971035719 0.0005767139373347163 0.10730749368667603 -0.009881042875349522 0.0005432392936199903 -0.009881011210381985 0.10726617276668549" pbc="T T T"
Li       2.80294499       3.40690744       0.36711186       0.00030601       0.00064300      -0.00089136
Li       2.80389736       1.37737982       2.39891406       0.00000462      -0.00034636       0.00004896
Ga       0.58346642       1.37593463       0.36813175       0.00001421       0.00028024       0.00083298
Sn       0.58357973       3.40765125       2.39769899      -0.00032484      -0.00057688       0.00000942
18
Lattice="6.819851714499957 -0.18042857345312655 -2.1996820211747874 -2.6041685391642604 6.270557759659868 -3.2676540596188883 -0.10424536534928724 0.02797818577179116 7.931038038771228" Properties=species:S:1:pos:R:3:forces:R:3 structure_index=8 total_energy=-50.271705627441406 stress="0.01180345844477415 0.0004822567861992866 -0.0008666906505823135 0.0004821462498512119 0.006943275220692158 -0.002815531799569726 -0.0008666335488669574 -0.0028153464663773775 0.011691151186823845" pbc="T T T"
Li      -1.23006674       5.35850444       1.63410472       0.00512225      -0.02349868       0.01595297
Li       3.21260484       3.45825252       0.11489738      -0.03260780      -0.01047203      -0.00926479
Li       0.62924763       4.32521651      -0.67913714      -0.01526763       0.00595078      -0.00118874
Li       3.87365421       0.43205505       4.10341683       0.00017371      -0.00172156      -0.01118190
Li      -0.94186921       2.27158546       2.94447515      -0.00034618       0.01141274      -0.00101614
Li       4.85910198      -0.01394986      -0.82797928       0.00870670       0.00978489      -0.01704183
Li       3.15696440       0.91522885       1.37044628       0.01866497      -0.03024995      -0.03343383
Li      -0.35782173       4.85843507       4.48509181      -0.00871159      -0.01171096       0.01790034
Li       4.82207189       2.78000013      -2.18511981       0.00324117      -0.00061257      -0.01623902
Li       3.83596807       5.69882102       1.62346047       0.02678020      -0.01210635       0.01844454
Li      -0.33352467       1.92386221       5.64310910      -0.02616039       0.00651740       0.01530552
Ga       2.89533803       5.77826305      -1.26745624       0.00208389       0.01389591       0.00235389
Ga       0.41057883       1.85794526       0.52893632       0.03026563       0.02300895       0.00132723
Ga       2.20140049       3.65626161      -2.88064111      -0.00032498       0.02229312       0.03366612
Sn       4.13272212       3.09162611       2.91727890      -0.02511073      -0.03579161      -0.02087376
Sn      -1.83093774       5.90422575      -1.03213451       0.02377788       0.03652115       0.02167371
Sn       2.37314291       1.21907232      -1.45433421      -0.00221538      -0.01303491      -0.02164816
Sn       1.29830639       4.00520880       2.17565163      -0.00807170       0.00981366       0.00526384
11
Lattice="4.373466941564316 -0.0023970636222923718 -1.295740364776518 0.0186502874670118 5.390080679783827 0.051633408062994775 -0.02425434218334692 -0.044603660956089836 7.944386405669163" Properties=species:S:1:pos:R:3:forces:R:3 structure_index=9 total_energy=-30.29257583618164 stress="-0.009948153048753738 0.0034657905343919992 0.0065291877835989 0.0034655288327485323 -0.04069952666759491 0.008555726148188114 0.006529274396598339 0.008555841632187366 0.007967513054609299" pbc="T T T"
Li       0.42076718       1.37605022      -0.07212645       0.00493088      -0.00874877       0.01438459
Li       1.93975197       0.29488633       5.05076337      -0.00042260      -0.01404786      -0.00042929
Li       3.97769701       1.70735554       3.89673795       0.00336647      -0.02746032       0.01337489
Li       2.75550266       5.17895004      -0.22830429      -0.00523244       0.01056153      -0.01748201
Li       3.54889351       4.83645083       2.44722025      -0.00688674       0.02040253      -0.02128564
Li       1.56027897       3.26504315       3.76461912       0.00086522      -0.00453918       0.00467941
Li       0.79733453       3.85108368       1.19450179      -0.00241738       0.02454838      -0.01099459
Ga       2.32141369       2.55062960       6.33636724       0.00595802      -0.02281848       0.01960958
Ga       1.20042612       0.70750024       2.55983625       0.00361060       0.01322686       0.00879586
Sn       3.17029923       2.30257849       1.17729776       0.00207093       0.02457997       0.00716961
Sn       4.34932968       4.26243167       5.14750487      -0.00584297      -0.01570460      -0.01782240
11
Lattice="3.065310887368075 0.0016108103865644361 -0.0019439112773897125 -0.004615862903774759 8.013806397204013 -0.5136654351355101 0.005925378432225763 0.12101147540739131 9.546230764762226" Properties=species:S:1:pos:R:3:forces:R:3 structure_index=10 total_energy=-35.19217300415039 stress="-0.015253731049597263 -9.651418622524943e-06 2.16597004509822e-06 -9.582196071278304e-06 -0.009788121096789837 6.608124385820702e-05 2.2250189886108274e-06 6.585744267795235e-05 -0.011583007872104645" pbc="T T T"
Li       2.20872499       6.66934317       5.68417696       0.00017651      -0.02912362      -0.00713457
Li       2.21045228       2.48494719       4.49952941      -0.00014126       0.02870241       0.00703644
Li       2.21302596       2.09019927       8.64637649       0.00017202      -0.04481735       0.01678110
Li       2.20619637       7.06371696       1.53748522      -0.00012462       0.04471916      -0.01712671
Ga       0.67955059       1.15681282       6.51513934       0.00008939      -0.01327250      -0.00483960
Ga       0.67432554       7.99559357       3.67057860      -0.00007134       0.01355982       0.00472621
Sn       0.67805688       4.16877198       6.74548523       0.00022501      -0.03494133       0.02960830
Sn       0.67409568       4.51552493       0.31959773      -0.00020986       0.00053326      -0.00018935
Sn       0.67752635       7.39146106       8.36939347      -0.00005549      -0.02938489      -0.01982311
Sn       0.67640951       1.76091081       1.81624954       0.00007853       0.02895274       0.02020461
Sn       0.67583450       4.98358966       3.43985218      -0.00013887       0.03507228      -0.02924332
4
Lattice="4.058371636573003 0.00041935016550269914 -0.0003130270233554669 -0.0006074305500839216 4.058354921938688 -2.6945213912610922e-05 0.0003671877031814423 2.9972786431618734e-05 4.447015963560133" Properties=species:S:1:pos:R:3:forces:R:3 structure_index=11 total_energy=-11.80024528503418 stress="0.07450929284095764 -0.0017549936892464757 7.870824629208073e-05 -0.0017548850737512112 0.07442449033260345 4.101453214389039e-06 7.87255703471601e-05 4.106037067685975e-06 0.10381711274385452" pbc="T T T"
Li       3.90987525       3.52988052       1.16719873      -0.00017440       0.00033332       0.00013026
Li       1.88067523       1.50060505       1.16779379       0.00052819       0.00025439      -0.00067004
Ga       3.91028392       1.50085982       3.39081307       0.00059810       0.00102663       0.00014721
Sn       1.88101755       3.53017877       3.39093888      -0.00095189      -0.00161434       0.00039257
4
Lattice="4.062070971062995 -0.0008039603670215443 0.007184842082560241 0.0008367891452102438 4.062496607653147 0.0029969246261505856 -0.0060410395970800605 -0.002516514753829462 4.435853371302764" Properties=species:S:1:pos:R:3:forces:R:3 structure_index=12 total_energy=-11.800222396850586 stress="0.10424403101205826 0.00032931999885477126 0.005750948563218117 0.0003293714253231883 0.10635210573673248 0.0023969088215380907 0.005751014221459627 0.00239689857698977 -0.0006287527503445745" pbc="T T T"
Li       1.07996753       3.18006108       2.36617624      -0.00048781      -0.00009685      -0.00157732
Li       3.11033822       1.14892330       2.36821585      -0.00017979      -0.00090027      -0.00148233
Ga       3.11380008       3.18111224       0.15100257      -0.00129711      -0.00241490       0.00100574
Sn       1.08188200       1.14943075       0.14600868       0.00196471       0.00341201       0.00205391
20
Lattice="6.465359741944113 -0.008461784286442234 -1.2938759443434458 -0.2423357459227069 6.461913573064522 -1.3075752546481922 -0.03626763253318265 -0.0210331499287606 8.275703495574074" Properties=species:S:1:pos:R:3:forces:R:3 structure_index=13 total_energy=-54.47295379638672 stress="0.013388393446803093 0.0019358466379344463 0.001687493990175426 0.0019359742291271687 0.014913061633706093 0.0011557249817997217 0.0016875717556104064 0.0011558079859241843 0.016935693100094795" pbc="T T T"
Li       4.60242212       0.50227327      -0.79001378       0.01686053       0.00344876       0.00744313
Li       1.53570181       0.50118970      -0.13618806      -0.02429418      -0.02738037       0.00887339
Li      -0.03082693       5.58394112       0.77938666      -0.00562584      -0.00757415      -0.01091288
Li       1.43340744       3.54851335      -0.81379124       0.00009962       0.02226217       0.00751060
Li       3.78817832       6.26049888       3.20112315      -0.00119524       0.01345006       0.00662498
Li       3.90983483       2.97613943       3.84832045      -0.00355110      -0.00936414       0.00676832
Li       3.19708385       5.57380222       0.04687713       0.00555260      -0.01127167       0.00963615
Li       4.53064243       3.60582882      -1.32927770       0.01924455       0.01771580      -0.01928695
Li       0.08047288       2.35724532       1.33587474      -0.01183301       0.00667618       0.00749186
Li       0.63315574       6.28451644       3.88093065       0.00469106       0.00637559       0.01523975
Li       5.74870029       4.89202620       4.61078575       0.00035173      -0.00147915      -0.00683855
Li       0.74919974       2.97985547       4.52519315       0.00710226      -0.00227430       0.00388612
Li       2.00955212       4.27114528       2.37367544      -0.00544663      -0.00487048       0.00463089
Li       5.29734160       1.13454465       2.37683652      -0.00567451      -0.00943455       0.00181734
Ga       2.71531455       1.71597056       5.99931923       0.00286429       0.00165294       0.01700682
Ga       3.30996620       2.34296170       0.66763984       0.01493395       0.01547440       0.00621827
Sn       2.59401713       4.94126860       5.41788300       0.00558047      -0.00557135       0.00557741
Sn       5.21282662       4.30602708       1.61961503      -0.02014175      -0.02394339      -0.03281710
Sn       2.01946514       1.01912043       2.86447978       0.01053346       0.00738687      -0.04815223
Sn       5.91201068       1.72011364       5.42310308      -0.01005227       0.00872072       0.00928266
5
Lattice="2.87950908512263 -0.000417651760960197 -0.5964247517925647 -0.2791643460315031 4.336315823074486 -1.3507255369683429 0.06019480058793986 -0.021021978994824508 7.591103689477161" Properties=species:S:1:pos:R:3:forces:R:3 structure_index=14 total_energy=-14.64598274230957 stress="0.005118764005601406 -0.0010524741373956203 -0.008107111789286137 -0.0010524018434807658 -0.02454542927443981 -0.006929631810635328 -0.008107061497867107 -0.006929619703441858 -0.03901046887040138" pbc="T T T"
Li       1.19756442       3.33518583       0.98164318      -0.00236621      -0.00808652      -0.02278335
Li       0.69510004       0.04369034       5.85376756       0.00937541       0.01488929       0.04484935
Ga       2.24047390       2.59605815       6.06665395      -0.00111851      -0.00206722      -0.00840338
Ga       2.59308006       0.87450152       0.46043774      -0.00273580      -0.00161451      -0.00609408
Sn       1.69089851       1.73696081       3.41518342      -0.00315488      -0.00312104      -0.00756854
5
Lattice="3.9195311529522923 -0.007904277420545273 1.6669937118305926 1.9943473909937834 4.84389665211181 0.782084952938268 -0.025705844637326097 0.07500838001456202 5.513730803993853" Properties=species:S:1:pos:R:3:forces:R:3 structure_index=15 total_energy=-15.562347412109375 stress="0.0013853730633854866 0.030686484649777412 0.011223413050174713 0.030686479061841965 0.020671119913458824 -0.05813170596957207 0.011223400942981243 -0.05813172087073326 0.0017876039491966367" pbc="T T T"
Li       4.35081928       2.82218557       5.56684251       0.00636115       0.00441536      -0.02159679
Li       2.87675649       4.70221328       3.59690900      -0.00639622      -0.01412681       0.01983598
Ga       1.66702864       3.72557899       0.99081844      -0.00127732      -0.00070501       0.00194797
Sn       2.03439202       0.81468498       5.55653727       0.01177413      -0.01195544      -0.01964550
Sn       3.19799025       1.85914049       2.82491992      -0.01046173       0.02237190       0.01945835
10
Lattice="3.0117508128235664 0.00033456519071726646 0.0006748862099796736 -0.0009064738059763108 7.907808443887089 0.0007629549093889688 -0.001813479048372685 -0.0006548105375917907 7.909719955244061" Properties=species:S:1:pos:R:3:forces:R:3 structure_index=16 total_energy=-28.909425735473633 stress="-0.015427210368216038 1.2881750990345608e-05 -3.5169960028724745e-05 1.2711451745417435e-05 -0.013196203857660294 9.106712241191417e-05 -3.535134965204634e-05 9.110930113820359e-05 -0.013868882320821285" pbc="T T T"
Li       0.49186694       5.40384328       4.20782455      -0.00031946      -0.01811479      -0.01956762
Li       0.49210128       0.32415897       7.03418963      -0.00070378       0.01924391       0.01896804
Li       0.49287928       1.45221176       3.07997921      -0.00070138      -0.01920902       0.01899237
Li       0.49261622       4.27801647       0.25144634       0.00034762       0.01999903      -0.01977108
Ga       1.99706489       7.74642713       4.69344401       0.00104341      -0.01327090       0.01236548
Ga       1.99901186       1.93729025       0.73828158       0.00020289       0.01275385       0.01259699
Ga       1.99813215       3.79352743       2.59326750       0.00047278      -0.01251226      -0.01286410
Ga       1.99685829       5.89094970       6.54916132       0.00064306       0.01236723      -0.01246665
Sn       1.99868240       6.82042638       1.66674779      -0.00061959      -0.00231555       0.00024137
Sn       1.99798707       2.86375068       5.62021322      -0.00036561       0.00105854       0.00150518
11
Lattice="4.262088202892191 -0.0014853212006329195 -1.3039456422869264 -0.05065402253982939 5.471500572817222 -0.17096559519221 0.04335360244957626 0.04834322479146293 7.762359249175997" Properties=species:S:1:pos:R:3:forces:R:3 structure_index=17 total_energy=-27.967021942138672 stress="0.04287625104188919 -0.0007217793609015644 -0.0011862360406666994 -0.0007218345417641103 0.02854660525918007 -0.0023841054644435644 -0.0011862326646223664 -0.002383786253631115 0.04116211459040642" pbc="T T T"
Li       0.06488173       5.07600226       4.59529728      -0.00364970      -0.00190168      -0.01256430
Li       0.51145591       1.86753344       6.05884234       0.00328531       0.01695693       0.00960375
Li       3.97971877       2.30187949       2.15796206       0.00094319      -0.01282777       0.00702592
Li       0.84072258       4.44890003       7.13397888       0.00248551       0.01210149       0.00881163
Li       1.59338256       3.80806552       1.97748687      -0.00000316      -0.00133283      -0.00408845
Li       1.24882511       1.35252182       0.85235405       0.00404317       0.00415708       0.01378603
Li       3.52354160       5.48162545       0.66570927      -0.00150284      -0.00794196      -0.00452258
Li       2.39372300       3.36314263       4.59124648       0.00158090      -0.00544515       0.00640059
Ga       2.02598265       0.84335306       3.39162246      -0.00041374      -0.00887786      -0.00066939
Ga       2.79053668       0.37069863       5.89160902      -0.00248927       0.00514040      -0.00538445
Sn       3.17761829       2.88318418      -0.46194550      -0.00427939      -0.00002864      -0.01839879
12
Lattice="4.566191300735101 0.004856316427565082 -0.001220791851936611 -2.287159317803948 3.952156793320251 -0.001932379666221748 0.004056591318255762 0.010040935293327466 14.825110351712313" Properties=species:S:1:pos:R:3:forces:R:3 structure_index=18 total_energy=-37.051414489746094 stress="-0.010954946279525757 1.0594120794849005e-05 -4.954892119712895e-06 1.0566433957137633e-05 -0.010946173220872879 3.669000307127135e-06 -4.873792477155803e-06 3.6040646591573022e-06 -0.006919496692717075" pbc="T T T"
Li      -0.11915840       2.58142910       5.78981528       0.00012897      -0.00007898      -0.00397488
Li      -0.11787288       2.58355994       9.48934669      -0.00003230       0.00004263      -0.01590930
Li      -0.11912287       2.57841900       1.99363368      -0.00020526       0.00011256       0.01239058
Li      -0.11701575       2.58694398      13.23047544       0.00010654      -0.00012063       0.04957858
Ga       2.16405790       3.90484489      10.33380088      -0.00000765       0.00000717      -0.00351702
Ga       2.16139548       3.89843936       0.22751032       0.00001311      -0.00001672       0.00128094
Ga       2.16561319       1.26612047       6.61507118       0.00008279      -0.00002917      -0.00814058
Ga       2.16260337       3.89975138       2.87619650      -0.00011893       0.00008184      -0.00404859
Sn       2.16316961       3.90306448       7.51356048       0.00006747      -0.00002486      -0.00800465
Sn       2.16697359       1.26905971      11.19405594       0.00000394      -0.00000380      -0.00495238
Sn       2.16782300       1.27161574      14.18338369       0.00005639      -0.00003284      -0.01017997
Sn       2.16548460       1.26399254       3.79014922      -0.00009505       0.00006280      -0.00452278
6
Lattice="3.1861506192554225 0.001600833048606506 -0.00018321509752136034 -0.00164196385618806 3.18615120048567 -0.00021008433632211328 0.0007393109757219546 0.00115198641090677 10.116536196012657" Properties=species:S:1:pos:R:3:forces:R:3 structure_index=19 total_energy=-17.203659057617188 stress="-0.07096462696790695 -0.0004031975695397705 4.2865551222348586e-05 -0.0004031723947264254 -0.07096114754676819 6.761447002645582e-05 4.284684473532252e-05 6.756411312380806e-05 0.00798941683024168" pbc="T T T"