# Tetrahedron method
       -0.7833872582        0.0000000000
       -0.7363840470        0.0000000000
       -0.6893808358        0.0000000000
       -0.6423776246        0.0000000000
       -0.5953744134        0.0000000000
       -0.5483712022        0.0000000000
       -0.5013679910        0.0000000000
       -0.4543647798        0.0000000000
       -0.4073615686        0.0000000000
       -0.3603583574        0.0000000000
       -0.3133551462        0.0000000000
       -0.2663519350        0.0000000000
       -0.2193487238        0.0000000000
       -0.1723455126        0.0000000000
       -0.1253423014        0.0000000000
       -0.0783390902        0.0000000000
       -0.0313358790        0.0000000000
        0.0156673322        0.0001161415
        0.0626705434        0.0018582848
        0.1096737546        0.0075284709
        0.1566769658        0.0195056563
        0.2036801770        0.0348249748
        0.2506833882        0.0563214366
        0.2976865994        0.0798485575
        0.3446898106        0.1078822838
        0.3916930218        0.1440930339
        0.4386962331        0.1838031817
        0.4856994443        0.2314040211
        0.5327026555        0.2835135078
        0.5797058667        0.3483639593
        0.6267090779        0.4200481372
        0.6737122891        0.5032744343
        0.7207155003        0.6035876494
        0.7677187115        0.7188086550
        0.8147219227        0.8608778264
        0.8617251339        1.0440707841
        0.9087283451        1.2632404135
        0.9557315563        1.4544400757
        1.0027347675        1.6894332710
        1.0497379787        2.0075954655
        1.0967411899        2.4017390405
        1.1437444011        3.0320817526
        1.1907476123        3.3858188174
        1.2377508235        3.5558355114
        1.2847540347        4.7530505846
        1.3317572459        5.5549179832
        1.3787604571        4.7361631543
        1.4257636683        4.2209712585
        1.4727668795        3.0080462916
        1.5197700907        2.3788398581
        1.5667733019        2.1842794272
        1.6137765131        2.0867815026
        1.6607797243        2.2717034265
        1.7077829355        2.7130016528
        1.7547861467        3.8386143445
        1.8017893580        4.3769447802
        1.8487925692        3.4442970236
        1.8957957804        2.0529945382
        1.9427989916        1.5997839384
        1.9898022028        1.7737141202
        2.0368054140        1.8900597843
        2.0838086252        1.9799332049
        2.1308118364        2.1257739856
        2.1778150476        2.7892063144
        2.2248182588        2.7557943685
        2.2718214700        2.7860411985
        2.3188246812        2.9847312681
        2.3658278924        3.5137005998
        2.4128311036        4.6944709427
        2.4598343148        4.8724150882
        2.5068375260        4.0180186908
        2.5538407372        4.8815197156
        2.6008439484        5.2429300094
        2.6478471596        4.2144532260
        2.6948503708        1.5677396585
        2.7418535820        0.6693959721
        2.7888567932        0.2842554263
        2.8358600044        0.1085711369
        2.8828632156        0.0000000000
        2.9298664268        0.0000000000
        2.9768696380        0.0000000000
        3.0238728492        0.0000000000
        3.0708760604        0.0000000000
        3.1178792716        0.0000000000
        3.1648824828        0.0000000000
        3.2118856941        0.0000000000
        3.2588889053        0.0000000000
        3.3058921165        0.0000000000
        3.3528953277        0.0000000000
        3.3998985389        0.0000000000
        3.4469017501        0.0000000000
        3.4939049613        0.0000000000
        3.5409081725        0.0000000000
        3.5879113837        0.0000000000
        3.6349145949        0.0000000000
        3.6819178061        0.0000000000
        3.7289210173        0.0000000000
        3.7759242285        0.0000000000
        3.8229274397        0.0000000000
        3.8699306509        0.0000000000
        3.9169338621        0.0000000000
        3.9639370733        0.0000000000
        4.0109402845        0.0000000000
        4.0579434957        0.0000000000
        4.1049467069        0.0000000000
        4.1519499181        0.0000000000
        4.1989531293        0.0000000000
        4.2459563405        0.0000000000
        4.2929595517        0.0000000000
        4.3399627629        0.0000000000
        4.3869659741        0.0000000000
        4.4339691853        0.0000000000
        4.4809723965        0.0000000000
        4.5279756077        0.0000000000
        4.5749788189        0.0000000000
        4.6219820302        0.0000000000
        4.6689852414        0.0000000000
        4.7159884526        0.0000000000
        4.7629916638        0.0000000000
        4.8099948750        0.0000000000
        4.8569980862        0.0000000000
        4.9040012974        0.0000000000
        4.9510045086        0.0000000000
        4.9980077198        0.0000000000
        5.0450109310        0.0000000000
        5.0920141422        0.0000000000
        5.1390173534        0.0000000000
        5.1860205646        0.0000000000
        5.2330237758        0.0000000000
        5.2800269870        0.0000000000
        5.3270301982        0.0000000000
        5.3740334094        0.0000000000
        5.4210366206        0.0000000000
        5.4680398318        0.0000000000
        5.5150430430        0.0000000000
        5.5620462542        0.0000000000
        5.6090494654        0.0000000000
        5.6560526766        0.0000000000
        5.7030558878        0.0000000000
        5.7500590990        0.0000000000
        5.7970623102        0.0000000000
        5.8440655214        0.0000000000
        5.8910687326        0.0000000000
        5.9380719438        0.3621212402
        5.9850751551        1.2255424844
        6.0320783663        1.1611054468
        6.0790815775        1.1159612801
        6.1260847887        0.9680495535
        6.1730879999        0.7974442566
        6.2200912111        0.7175807086
        6.2670944223        0.6696728063
        6.3140976335        0.6382025594
        6.3611008447        0.6170668676
        6.4081040559        0.6038928564
        6.4551072671        0.5969277032
        6.5021104783        0.5955693490
        6.5491136895        0.5996490907
        6.5961169007        0.6095628131
        6.6431201119        0.6262973740
        6.6901233231        0.6520277925
        6.7371265343        0.6908562181
        6.7841297455        0.7524174572
        6.8311329567        0.8673256818
        6.8781361679        1.2354483833
        6.9251393791        1.7798218508
        6.9721425903        2.4222965110
        7.0191458015        2.8160101058
        7.0661490127        2.8784785270
        7.1131522239        3.0588064494
        7.1601554351        2.9653090186
        7.2071586463        3.1579659415
        7.2541618575        5.2190925947
        7.3011650687        3.1925012632
        7.3481682799        2.6899573808
        7.3951714912        4.0499205145
        7.4421747024        4.8817549653
        7.4891779136        1.9097633950
        7.5361811248        1.3346108626
        7.5831843360        1.0813907962
        7.6301875472        0.9295052617
        7.6771907584        0.8207800850
        7.7241939696        0.7403710847
        7.7711971808        0.6769414032
        7.8182003920        0.6259628173
        7.8652036032        0.0000000000
        7.9122068144        0.0000000000
        7.9592100256        0.0000000000
        8.0062132368        0.0000000000
        8.0532164480        0.0000000000
        8.1002196592        0.0000000000
        8.1472228704        0.0000000000
        8.1942260816        0.0000000000
        8.2412292928        0.0000000000
        8.2882325040        0.0000000000
        8.3352357152        0.0000000000
        8.3822389264        0.0000000000
        8.4292421376        0.0000000000
        8.4762453488        0.0000000000
        8.5232485600        0.0000000000
        8.5702517712        0.0000000000
        8.6172549824        0.0000000000
