16
Lattice="5.452571017931332 -0.00521316796563233 0.6970654486160274 0.0023296031766883983 6.137422116656521 0.018368736693983576 0.023767257628390097 -0.020990234323958683 10.244654619789321" Properties=species:S:1:pos:R:3:forces:R:3 structure_index=0 total_energy=-52.107261657714844 stress="0.009620897471904755 0.0008526057354174554 -0.013139941729605198 0.0008525912999175489 0.002686460269615054 0.0059883929789066315 -0.013140005059540272 0.005988429766148329 -0.01312560960650444" pbc="T T T"
Li       1.73716094       3.60210446       2.20603625      -0.00287089       0.00490108       0.00152633
Li       0.38709133       0.51481424       9.70586111       0.00193722       0.00830235       0.00271877
Li       3.10649042       0.52308968       4.93586769       0.00021981       0.00689910       0.00053589
Li       0.38198121       5.14585968       4.60517318      -0.00017147      -0.00696933      -0.00400558
Li       4.45345277       2.07563964       2.55342642       0.00664069      -0.00607395      -0.00186475
Li       1.75351869       2.07590742       7.32738680      -0.00359021      -0.01030521      -0.00146145
Li       4.48096354       3.58868710       7.67879629      -0.00142567       0.00767035       0.00235735
Li       3.12105904       5.13063386      10.07965863      -0.00373493      -0.00548357      -0.00769629
Sn       3.11357127       3.59128760       4.94385652      -0.00585756       0.01548581       0.00174256
Sn       1.73508410       0.53353285       2.19702048      -0.00674997       0.00940869       0.00211119
Sn       4.47242138       0.52320039       7.67352451       0.00378550       0.00492551      -0.00324479
Sn       0.39136344       3.58718671       9.72210170       0.00067791       0.01100580      -0.00482586
Sn       4.45399999       5.14449027       2.56312172       0.01190890      -0.00934319       0.00331431
Sn       3.11690137       2.06243913      10.05799384       0.00001464      -0.00947535       0.00538562
Sn       0.38438354       2.07498115       4.59036962      -0.00142057      -0.01143531      -0.00003871
Sn       1.75124875       5.13841976       7.33517196       0.00063659      -0.00951275       0.00344542
12
Lattice="4.530877702150543 -5.733494264357431e-05 -1.0368368200575504 -0.23828188744081996 4.527068230597877 -1.0398122188410266 -0.002607265434090108 0.0004890481017285463 10.404994986744168" Properties=species:S:1:pos:R:3:forces:R:3 structure_index=1 total_energy=-33.764888763427734 stress="0.010501771233975887 4.132159119762946e-06 0.003852478228509426 4.1513862925057765e-06 0.015920838341116905 0.0013448884710669518 0.0038527396973222494 0.001344868796877563 0.02189449593424797" pbc="T T T"
Li       3.65750569       2.96147937       0.54428074       0.00291338       0.00364638       0.00690773
Li      -0.15779203       3.71773352       4.70235603      -0.00065939       0.00288914       0.00401354
Li       4.13426999       1.07635075       2.62225394       0.00044029       0.00013483       0.00473673
Li       1.03781807       2.59050561      -0.48832494      -0.00269531      -0.00435071      -0.00546015
Li       2.94163950       2.21271947       7.83653587      -0.00006763      -0.00614307      -0.01108316
Li       0.55601059       4.47397120       7.82917797       0.00226272       0.00187810       0.00175192
Li       1.51438308       0.70215675       1.59460184      -0.00439306      -0.00105665      -0.02075173
Li       2.46469851       4.09799276       5.74811551      -0.00028811      -0.00100458      -0.00139668
Li       2.22458088       1.45484161       4.69591488       0.00434586       0.00327254       0.02152177
Sn       3.42127000       0.32244938      -0.49037041      -0.00226175       0.00404978      -0.00335957
Sn       1.74962253       3.34193398       2.62231093       0.00164212      -0.00107550       0.00694443
Sn       0.31842302       1.83333666       6.78711310      -0.00123909      -0.00224024      -0.00382486
9
Lattice="4.677562516557859 0.0005723449136458087 -0.0001909308781493597 -2.339529255075489 4.050659356869138 -0.0009476575995987092 -0.001374877896656986 0.0021345173727169925 8.424178722904026" Properties=species:S:1:pos:R:3:forces:R:3 structure_index=2 total_energy=-24.73383331298828 stress="0.03087400458753109 0.00011143261508550495 0.00012487823551055044 0.0001112056925194338 0.03180123493075371 -0.0007693521911278367 0.00012509901716839522 -0.0007689829799346626 0.018671128898859024" pbc="T T T"
Li       2.74395784       2.93750182       2.85537825      -0.00071748       0.00148181      -0.01260946
Li       0.40340694       1.58792818       3.70674770       0.00250332      -0.00112274      -0.04297714
Li       2.74380711       2.93819083       0.12577577      -0.00038820      -0.00076554       0.00647885
Li       2.74459215       0.23653471       4.97436131      -0.00327830       0.00252167       0.04762616
Li       0.40463713       1.58704765       0.99702689       0.00154540       0.00060194       0.04341451
Li       2.74096001       2.93930161       5.82901312       0.00341395      -0.00149619       0.00529334
Li       2.74288747       0.23881453       7.68799225      -0.00045068       0.00052046      -0.04978023
Sn       2.74469703       0.23741154       2.11581068      -0.00203819      -0.00140930      -0.02258369
Sn       0.40343024       1.58870080       6.56682285      -0.00058978      -0.00033212       0.02513760
16
Lattice="5.721428516373887 0.00017342504360187285 0.011154488573365031 0.0001948267899650732 6.670537087999429 -0.0004891985652519207 -0.017146060807769727 0.0006133397416267387 9.93929182890265" Properties=species:S:1:pos:R:3:forces:R:3 structure_index=3 total_energy=-54.485679626464844 stress="0.012717051431536674 2.7280186259304173e-05 0.0003474550030659884 2.7287856937618926e-05 -0.018660893663764 -8.686360524734482e-05 0.0003474738623481244 -8.694241842022166e-05 -0.005828283727169037" pbc="T T T"
Li       3.06584520       5.87445722       9.77335120      -0.00529034      -0.00365891       0.00071966
Li       0.07438918       4.08953258       9.77133460       0.01596601       0.00054158      -0.00109148
Li       1.11485217       2.54368463       4.80213190       0.00636502      -0.00584012       0.00000472
Li       1.11900449       5.64270585       4.79974217       0.00454558       0.00427138       0.00099116
Li       4.10862273       0.75477691       4.80730069      -0.01591236       0.00048046      -0.00018737
Li       3.06304896       2.30705994       9.77426774      -0.00417808       0.00385006       0.00068475
Sn       4.95897944       5.75644989       2.32402379       0.00086791       0.00072102       0.00005785
Sn       4.95413099       5.75850488       7.29391688      -0.00112451       0.00001696      -0.00086720
Sn       0.28926981       0.75435844       9.76919571      -0.02152755       0.00019860       0.00097212
Sn       2.02675074       4.09114876       7.38725661      -0.00431374      -0.00019830       0.00158649
Sn       3.89488626       4.09031484       4.80761743       0.02046328       0.00004496      -0.00029590
Sn       4.95325455       2.42331012       7.29607006      -0.00101763      -0.00018487      -0.00149310
Sn       4.95932599       2.42129813       2.32409712       0.00029955       0.00076924       0.00001273
Sn       2.03470462       4.09075572       2.22055084      -0.00439584      -0.00030230      -0.00301293
Sn       2.16410604       0.75610563       2.41744350       0.00402184      -0.00061114       0.00281167
Sn       2.15593248       0.75614094       7.18781283       0.00523086      -0.00009865      -0.00089320
10
Lattice="4.280705581447494 -0.0003392677995842654 0.8114272755773025 0.004797978058720597 4.338955348041308 0.00950442158997984 0.0036934842558295016 -0.0018249875813061997 11.524964947843873" Properties=species:S:1:pos:R:3:forces:R:3 structure_index=4 total_energy=-32.578758239746094 stress="-0.010954677127301693 0.003491586074233055 -0.018914371728897095 0.003491621231660247 0.013362801633775234 0.010080136358737946 -0.018914371728897095 0.010080068372189999 0.013325664214789867" pbc="T T T"
Li       3.55266027       0.33750136       4.79774090       0.00069611       0.00346435      -0.00485801
Li       0.99589815       0.33842503       6.56628382       0.00651953       0.00057250      -0.03654668
Li       2.27348807       2.50901820      11.46689292       0.00129454      -0.00061595      -0.00198160
Li       0.56099612       2.50849226       8.83691022      -0.00160462      -0.00125835       0.00007791
Li       1.82981982       0.33975170       2.20888383      -0.00372846       0.00189420       0.02920191
Sn       3.13073147       2.50844067       7.03833513      -0.00412396      -0.00163482      -0.01349385
Sn       3.98432914       2.51064172       2.56301921       0.00106887      -0.00180673      -0.01225943
Sn       0.13140172       0.34053467      11.06959318      -0.00244556      -0.00079470      -0.01873522
Sn       1.41682101       2.51061068       4.37753307       0.00039467      -0.00369294       0.01804014
Sn       2.69817681       0.33561799       9.20815825       0.00192889       0.00387243       0.04055484
11
Lattice="4.490276838695623 -0.005180930882731122 -1.3791685508523148 0.023967841522207326 5.399461442268158 0.0617574639638223 0.02212641914085047 -0.0034012924494542813 8.084677528099707" Properties=species:S:1:pos:R:3:forces:R:3 structure_index=5 total_energy=-28.62576675415039 stress="0.011673958972096443 -0.0057357666082680225 -0.014841302298009396 -0.005735987797379494 -0.0030403847340494394 -0.013891562819480896 -0.014841245487332344 -0.01389172114431858 -0.023104466497898102" pbc="T T T"
Li       4.04503214       2.39056171      -0.45756136      -0.00159249       0.01815062      -0.00616805
Li       0.38252563       2.03354723       3.61263901       0.00382244       0.00758788       0.01544354
Li       3.26766202       2.88553812       5.01383102       0.00892142      -0.01901553       0.02538708
Li       2.00698243       0.95253921       0.91316903      -0.01101178      -0.02047116      -0.04041265
Li       1.62622867       4.10147272      -0.34562098      -0.00039706      -0.01668376       0.00303244
Li       2.83574829       0.54967806       3.60178385       0.00142782      -0.00320589       0.00709417
Li       0.82452072       4.46410011       5.04450247      -0.00768297      -0.00473313      -0.01729195
Li       2.42749349       3.61016834       2.26765239      -0.01104951       0.01300301      -0.02758151
Li       3.65876781       0.13862768       6.29932581       0.01330389       0.02416250       0.04106819
Sn       1.20995552       1.60311902       6.31966668      -0.00302776      -0.03284631      -0.01125570
Sn       4.48145277       4.88940419       0.95734970       0.00728600       0.03405182       0.01068446
5
Lattice="3.4613669225855728 -0.000330894951136345 -0.8324884534711651 -0.1994638372026454 3.4541076806291313 -0.8313244391140654 0.14791657509621037 0.15624468779176193 8.235390168355396" Properties=species:S:1:pos:R:3:forces:R:3 structure_index=6 total_energy=-15.305259704589844 stress="0.038561247289180756 -0.0007748630014248192 -0.0022426596842706203 -0.0007748705102130771 0.03968628868460655 -0.0016473769210278988 -0.002242779592052102 -0.0016474009025841951 0.04251487925648689" pbc="T T T"
Li       2.23221034       2.86816676       3.37179606       0.00168168       0.00228359       0.00774137
Li       1.52994299       2.12450404       0.44841076      -0.00019794       0.00034451       0.00045639
Li       0.97551095       1.53781464       5.76081202      -0.00192921      -0.00226615      -0.00757125
Sn       0.26966677       0.79093725       2.82526792       0.00916483       0.00873716       0.03543811
Sn       3.13714607       0.16093832       7.13905210      -0.00871937      -0.00909912      -0.03606462
12
Lattice="4.592446624261251 -0.007265804028682861 0.0021351708086246395 0.009906180838182867 6.4529392090093385 0.007083163123715677 -0.00570218451624021 -0.010100887392649697 9.64222970861516" Properties=species:S:1:pos:R:3:forces:R:3 structure_index=7 total_energy=-41.96037292480469 stress="-0.008067679591476917 -0.00043739631655626 -0.00037400369183160365 -0.0004374292038846761 0.02768772654235363 1.8359201931161806e-05 -0.0003739683306775987 1.8514812836656347e-05 -0.017583291977643967" pbc="T T T"
Li       1.44585509       1.97972840       1.67812849      -0.00030451       0.02331693       0.03718219
Li       3.73991805       3.35594015       6.49987068       0.00044119      -0.02591312       0.03885875
Li       3.73414011       0.12176901       9.53071227      -0.00033219      -0.02279804      -0.03631287
Li       1.44873367       5.19764009       4.71648211      -0.00030258       0.02571828      -0.03724743
Sn       3.74211650       3.59265970       3.32174381       0.00086879      -0.02606361      -0.01529124
Sn       1.44299021       1.95025792       4.88492659       0.00011776      -0.01440538      -0.02330584
Sn       1.44652390       4.96607045       7.89797984      -0.00052620       0.02086997       0.01112844
Sn       3.74455921       3.37889240       0.06202584      -0.00021553       0.02021441      -0.01654200
Sn       3.73919764       0.36642811       3.06973656      -0.00128254      -0.02533147       0.01453648
Sn       1.44960904       5.18355270       1.50901082       0.00093151      -0.01746521       0.02332063
Sn       3.73610167       0.14617465       6.32850915      -0.00029984       0.01978273       0.01864124
Sn       1.44021091       1.73874562       8.14008320       0.00090414       0.02207454      -0.01496834
9
Lattice="4.175606232669354 -0.0015342704126265745 1.5945253172932106 2.0896349964272036 6.2096099729504015 0.7984396280334577 -0.13067165363410027 -0.00034835912674525667 6.607078515169895" Properties=species:S:1:pos:R:3:forces:R:3 structure_index=8 total_energy=-20.808494567871094 stress="-0.03575558960437775 -0.0012179930927231908 -0.025842534378170967 -0.001217983546666801 0.031946852803230286 0.00015715492190793157 -0.025842420756816864 0.0001571977190906182 0.021599436178803444" pbc="T T T"
Li       2.98264441       3.61494447       4.95181251      -0.00138978      -0.00137715       0.00070614
Li       3.77890541       5.64772034       2.87006813       0.00715173      -0.02260110      -0.02446914
Li       2.28680851       1.66823800       6.77529969      -0.00196150      -0.00461167      -0.00188270
Li       2.28531211       5.55948159       6.77352283       0.00208913       0.00608378       0.00228266
Li       0.92287603       1.58226977       4.07459782      -0.00656308       0.02269077       0.02257914
Li       5.10101255       5.64626436       5.66961383      -0.00887961      -0.02270125       0.02225234
Li       3.77661960       1.58090889       2.86938584       0.00915471       0.02190317      -0.02409301
Li       1.72064634       3.61439434       1.98682557       0.00020941       0.00063358       0.00522425
Sn       4.37339155       3.61360133       7.57348587       0.00018899      -0.00002012      -0.00259969
4
Lattice="4.205680977198208 -3.3132183986007406e-05 0.0005052189764196931 0.0001515193022071909 4.2154695034931 0.0001762180920214293 -0.00011147199474822892 -3.81703596236105e-05 4.215499105012433" Properties=species:S:1:pos:R:3:forces:R:3 structure_index=9 total_energy=-11.042654037475586 stress="-0.04868613928556442 0.0003706271236296743 0.0012437994591891766 0.00037050084210932255 -0.041443273425102234 0.0004292967787478119 0.0012437469558790326 0.0004292285011615604 -0.04141928628087044" pbc="T T T"
Li       0.46635529       0.84866103       2.93771963       0.00005733       0.00015750       0.00055785
Li       2.56900994       0.84915297       0.83058576       0.00003920      -0.00052092      -0.00022819
Li       2.57000137       2.95656598       2.93818708      -0.00131588      -0.00000611       0.00039833
Sn       0.46604824       2.95645487       0.83056006       0.00121934       0.00036953      -0.00072797
4
Lattice="3.5728657862075823 0.0014566510476318737 -0.0006033239761295584 -0.000858132423784988 4.538003357582483 -0.0015240252972339222 0.0016596529683959428 0.0008374975541664036 4.539148081074181" Properties=species:S:1:pos:R:3:forces:R:3 structure_index=10 total_energy=-11.043327331542969 stress="-0.09394148737192154 0.0031982611399143934 0.0029732047114521265 0.003198145190253854 0.06070302054286003 -0.0009234202443622053 0.0029732792172580957 -0.0009233079617843032 0.07245325297117233" pbc="T T T"
Li       3.43780740       3.35588791       0.96430465       0.00040139       0.00010026       0.00151961
Li       1.65255318       3.35406917       3.23499487      -0.00008280       0.00197971       0.00099486
Li       1.65189369       1.08649044       0.97029738       0.00028552      -0.00093610      -0.00371072
Sn       3.43957383       1.08677224       3.23787466      -0.00060410      -0.00114387       0.00119625
5
Lattice="4.213310250115098 0.0036659799903783624 2.0243760971583526 1.6139529739548835 3.8963781583326873 2.018462510988216 -0.012711672825886977 -0.006199581964343356 5.393000833124796" Properties=species:S:1:pos:R:3:forces:R:3 structure_index=11 total_energy=-13.386276245117188 stress="0.010748711414635181 -0.014516369439661503 0.020316533744335175 -0.014516336843371391 0.03179364278912544 0.002686650026589632 0.02031649462878704 0.002686525695025921 -0.08075746148824692" pbc="T T T"
Li       1.70259449       1.60221032       1.91109494      -0.00531617      -0.00083539       0.01864093
Li       3.57512675       0.04103249       3.41250242       0.00079671      -0.00005551      -0.00956021
Li       0.61050885       0.87522929       4.17319437      -0.00370563      -0.00384141       0.00586011
Li       4.09998978       3.20929886       7.69426820       0.00257568       0.00187075      -0.02266542
Sn       2.89827863       2.40535172       4.79943576       0.00564941       0.00286156       0.00772460
8
Lattice="4.62535240390625 -0.048711138663615566 0.001984782829716283 0.04313286478744334 4.6393052354122934 0.007396068919006039 -0.005848369253331918 -0.011507495573296835 9.417602560485449" Properties=species:S:1:pos:R:3:forces:R:3 structure_index=12 total_energy=-28.87482452392578 stress="-0.018190069124102592 -0.010705869644880295 -0.0013074930757284164 -0.010705819353461266 0.005861049517989159 -0.0017009687144309282 -0.001307487953454256 -0.0017009865259751678 -0.013545001856982708" pbc="T T T"
Li       3.76932773       1.64714285       4.87592833      -0.00295058      -0.00024111      -0.01581968
Li       1.47665758       3.99481627       0.12079747      -0.00014493       0.00228692       0.01851723
Sn       1.47464828       3.98726827       4.83163108      -0.00099314       0.00433832       0.03549036
Sn       3.78423981       3.99956592       7.22036893       0.00067942      -0.02185896      -0.00954473
Sn       3.76924032       1.65529442       0.16321881      -0.00253832      -0.00053585      -0.02882952
Sn       3.78390183       3.94474622       2.49787911       0.00271416       0.01560638       0.00248258
Sn       1.45038619       1.65426453       2.50331249       0.00206957       0.00623614      -0.00553605
Sn       1.44993198       1.69246482       7.20102980       0.00116384      -0.00583184       0.00323982
12
Lattice="4.660292084690472 0.0009454492913388132 -0.002082223288399156 -0.002086405116532488 5.618020387539042 -1.30914663262498 0.004143331912847867 -0.2577240715201125 8.526442244322476" Properties=species:S:1:pos:R:3:forces:R:3 structure_index=13 total_energy=-33.165771484375 stress="0.0021788221783936024 -0.0003100369649473578 -7.238760008476675e-05 -0.00031022270559333265 -0.005477337632328272 0.011186234652996063 -7.235891098389402e-05 0.011186117306351662 0.01688801869750023" pbc="T T T"
Li       2.73362870       0.06408600       2.07868796      -0.00026394       0.05036644       0.00042628
Li       2.73477684       3.47235744       6.93446319       0.00004479      -0.00378842       0.00490357
Li       2.73382769       3.59729938       4.07723286      -0.00047623       0.01145881       0.00033779
Li       2.73210000       3.01644124       1.36050778       0.00033783       0.01883592       0.00862079
Li       0.40178774       2.36519263       0.19541328      -0.00015506      -0.02622151       0.00863645
Li       0.40326048       5.06813245       4.99559760       0.00030475      -0.01538374       0.00188053
Li       2.73439877       0.67540178       4.83108049       0.00003165       0.00478084      -0.01746318
Li       0.40080872       5.10925941      -0.71384256      -0.00016879      -0.03548326       0.00332722
Li       0.40324221       1.80705905       3.19263804       0.00018712       0.00398939      -0.00742016
Sn       0.40209947       4.52469537       2.12564377       0.00008215       0.01364763       0.00443134
Sn       0.40437916       2.28967763       5.94998349       0.00008141      -0.00948440       0.00756525
Sn       2.73601228       0.67257818       7.74741436      -0.00000572      -0.01271772      -0.01524589
4
Lattice="3.934591018719873 -0.0006863622788412842 -0.0008824411385969675 0.0005806762922706946 3.936069719644312 0.0011917921969044607 0.0009552409418115615 -0.0012925730126967223 6.5762551544623795" Properties=species:S:1:pos:R:3:forces:R:3 structure_index=14 total_energy=-14.326066970825195 stress="0.03975930064916611 -0.00017175682296510786 -0.0004025082744192332 -0.00017176405526697636 0.036072712391614914 0.000446100631961599 -0.00040235219057649374 0.00044620869448408484 0.004224338103085756" pbc="T T T"
Li       0.06214659       2.89020484       2.09580820       0.00063358       0.00066987       0.00184221
Sn       2.03008989       0.92183414       3.70529060      -0.00013228      -0.00015881      -0.03855569
Sn       2.03006491       0.92380369       0.49391975      -0.00041629      -0.00106297       0.03359047
Sn       0.06365518       2.88974371       5.38526442      -0.00008501       0.00055191       0.00312299
5
Lattice="5.300022015460222 0.10384135712127601 0.6590948518701653 1.5591665984649183 3.713260742116714 1.8786042611034905 0.012601597359385283 0.026713925174555963 5.191382819988951" Properties=species:S:1:pos:R:3:forces:R:3 structure_index=15 total_energy=-15.419075965881348 stress="0.008641303516924381 -0.014144718647003174 -0.017970871180295944 -0.014144722372293472 -0.03140182048082352 -0.017206421121954918 -0.01797102577984333 -0.017206421121954918 -0.00024993845727294683" pbc="T T T"
Li       2.36079508       3.15675973       4.07844504      -0.00863982       0.02520408      -0.03896233
Li       5.32645105       2.44664727       3.03043689      -0.00071651       0.00026131      -0.00100443
Li       2.99003164       1.63304405       1.32047516       0.01053375      -0.02561469       0.04002136
Sn       3.28722297       0.24614809       3.80891611      -0.03080388       0.00231292       0.02606539
Sn       0.51929564       0.85661445       4.90379372       0.02962645      -0.00216361      -0.02612000
16
Lattice="4.988614609288411 0.0002711358444411716 0.0008053208974286156 -0.00016254971598199657 6.124581367334808 0.04238536692463324 -0.00042007829785693806 0.03281962698673314 10.838118711507294" Properties=species:S:1:pos:R:3:forces:R:3 structure_index=16 total_energy=-50.277015686035156 stress="-0.019765423610806465 -2.8674683562712744e-05 1.4877407920721453e-05 -2.869180570996832e-05 -0.008707343600690365 -0.002237016335129738 1.4967757124395575e-05 -0.0022369208745658398 0.010440497659146786" pbc="T T T"
Li       3.50326608       0.57209063       6.22266635       0.00094177      -0.03486098       0.00936602
Li       3.50448714       2.03642788       8.79129455      -0.00031663      -0.00152804      -0.02331232
Li       3.50379162       5.19498929       8.81785074       0.00060033      -0.00408714      -0.02416440
Li       1.01094479       5.22793344      10.62314580      -0.00031328       0.00924925       0.02268657
Li       1.01081955       5.15725913       5.26342475      -0.00068225       0.01166525       0.02138070
Li       1.01069777       3.65891243       2.42474514      -0.00004157      -0.02273061       0.00151177
Li       3.50492383       0.66977888       0.76192895       0.00001851      -0.00008017       0.00899469
Li       3.50409026       2.15496868       3.45056743       0.00068490      -0.00640893      -0.01292760
Li       1.01105285       3.60043139       7.88719767      -0.00062288       0.03875452      -0.01355232
Sn       1.01024344       2.09558210       5.27015649      -0.00088916      -0.03146893      -0.00809286
Sn       3.50461789       3.65133982       6.17864420       0.00045458       0.00858138      -0.00301494
Sn       1.00966641       0.47214094       7.94998138      -0.00001343       0.01568443       0.02040131
Sn       3.50571066       3.70934699       0.60731308      -0.00098284       0.00542162      -0.01324311
Sn       1.01061083       0.60661862       2.51747334      -0.00040528       0.01922095       0.00509711
Sn       3.50458709       5.16761345       3.45628693       0.00062102      -0.01098604       0.00044157
Sn       1.00977202       2.14738782      10.48276104       0.00094619       0.00357346       0.00842779
10
Lattice="4.321163679705424 0.0005012247617125199 -0.9146869332541328 -0.0005663757937308563 4.4849811337591925 -0.00012618074412948992 -0.05095800122422007 -0.0003880642564523105 10.40707302239282" Properties=species:S:1:pos:R:3:forces:R:3 structure_index=17 total_energy=-30.742008209228516 stress="0.017683301120996475 -4.779544906341471e-05 -0.003376409411430359 -4.772212923853658e-05 0.017492732033133507 -4.834273204323836e-05 -0.0033763337414711714 -4.850492041441612e-05 -0.001827083877287805" pbc="T T T"
Li       2.12169999       1.37185125       4.47964716       0.00250012      -0.00077193       0.00809156
Li       2.56065260       3.61140879       6.54129115      -0.00228128       0.00107439      -0.00605238
Li       2.97757484       1.36907288       8.50871649       0.00924882       0.00033685       0.04214056
Li       1.29733096       1.37055662       0.58241493      -0.00714718       0.00016432      -0.02614202
Li       3.43725248       3.61287343       0.03598847       0.00643996       0.00028421       0.02394807
Li       1.70450766       3.61393151       2.51233397      -0.00824960       0.00002035      -0.03918868
Sn       0.85528116       3.61192483       9.14382405       0.00082248       0.00001564       0.01277170
Sn       0.42265062       1.36905861       7.10795416       0.00500254       0.00095101       0.01917142
Sn       4.26003866       3.61468626       3.91556391      -0.00492265      -0.00115210      -0.01985028
Sn       3.82805874       1.37187629       1.88096323      -0.00141319      -0.00092277      -0.01488996
4
Lattice="4.646232128143311 0.0 -0.003422037698328009 -0.0024709180744967945 4.6477153885584706 -0.002529445802794446 0.0 0.0 4.644726753234863" Properties=species:S:1:pos:R:3:forces:R:3 structure_index=18 total_energy=-14.44173812866211 stress="-0.07256659120321274 -0.004886290989816189 -0.006775138899683952 -0.004886304028332233 -0.06850027292966843 -0.00502081960439682 -0.00677512539550662 -0.005020846612751484 -0.07669167965650558" pbc="T T T"
Li       4.39553349       1.77633481       3.51179449      -0.00022850       0.00011942      -0.00033534
Sn       4.39385088       4.09896210       1.18828159       0.00010050       0.00142397      -0.00054494
Sn       2.07154709       4.10179080       3.51163363      -0.00067667      -0.00143236       0.00008992
Sn       2.07131299       1.77662583       1.18993795       0.00080466      -0.00011103       0.00079036
13
Lattice="5.65809081283863 -0.0002687574343715344 -0.0001545998910395978 -2.827193700703535 4.903468335811191 0.0014672795970791484 -0.0003360962932299054 -0.002278146910569603 9.62008425171784" Properties=species:S:1:pos:R:3:forces:R:3 structure_index=19 total_energy=-40.89970397949219 stress="-0.016182178631424904 0.00020748762472067028 9.657166810939088e-05 0.00020740460604429245 -0.011558305472135544 0.0007739206193946302 9.652209701016545e-05 0.0007739737047813833 -0.02105981670320034" pbc="T T T"
Li       2.51847413       4.22194648       5.86654829      -0.00040779       0.00058433      -0.00748011
Li      -0.31027382       4.22374308       3.50943582       0.00073270      -0.00015869      -0.00050135
Li       3.93204447       1.77068887       5.86739123       0.00020780      -0.00056331      -0.00851402
Li       1.10255504       1.77075821       5.86504631       0.00070641       0.00024948      -0.00661792
Li       1.10222932       1.77127394       1.15233578       0.00154658       0.00094188       0.00034735
Li       3.93214640       1.77205366       1.14948176      -0.00022987      -0.00104481       0.00265806
Li       2.51855670       4.22295353       1.15338168      -0.00078396       0.00028475      -0.00018718
Sn      -0.30972767       0.95291312       3.50601790      -0.00286062       0.00248656       0.00761507
Sn      -0.31204560       4.22344027       0.16751550       0.00159559       0.00042042      -0.00851825
Sn      -0.31076111       0.94985351       8.31725208      -0.00009727       0.00088289       0.00258002
Sn       2.51506547       2.58957448       8.31738733       0.00042065      -0.00082175       0.00317342
Sn       2.52049944       2.59034605       3.50670961      -0.00200911      -0.00331121       0.00644178
Sn      -0.31142548       4.22230141       6.84885556       0.00117889       0.00004946       0.00900313
11