15
Lattice="6.481175584364202 0.0011203152201161523 0.6975877388267064 2.1501311981993494 6.465027825653443 2.7489058086642837 -0.0018413264319717502 0.005247506125004018 6.935837788402387" Properties=species:S:1:pos:R:3:forces:R:3 structure_index=0 total_energy=-45.57417678833008 stress="-0.010896530002355576 -0.0019246406154707074 0.0005065691075287759 -0.001924657030031085 -0.007028675638139248 -0.0027842156123369932 0.0005065526929683983 -0.0027841541450470686 -0.009630274027585983" pbc="T T T"
Li       3.65558430       4.84540057       6.37926888       0.00425114      -0.00376330       0.00048058
Ga       7.42471977       6.15095034       6.33706095       0.03040548      -0.01065594       0.00081653
Ga       5.76986028       4.86324789       4.29338870       0.00066239      -0.01310128       0.01744881
Ga       2.34455911       2.30966053       7.15631503      -0.00663887       0.01291029      -0.01029727
Ga       4.96661077       1.01171481       7.82268901      -0.01030814      -0.01382604       0.00165177
Ga       2.87112048       1.07537714       2.87548538      -0.00096171       0.00564268       0.00585648
Ga       1.92355739       3.65229031       4.28495581      -0.00083981       0.01255640       0.01135881
Ga       5.47081025       6.17792228       8.53905136       0.01747137      -0.01483309       0.00014943
Ga       7.94220554       4.79846690       9.25712665       0.01323009      -0.00684116      -0.01017376
Ga       3.23392108       6.19329227       3.71906484       0.01080360       0.01086787       0.03167379
Ga       4.43164661       2.37508294       5.03756899      -0.01281164      -0.01512499      -0.01993191
Ga       6.25589524       3.62033006       7.10415891      -0.02449940      -0.00968215      -0.00145583
Ga       4.08877480       3.64896583       2.17994273      -0.00869482       0.00643413      -0.00858215
Ga       6.60733348       2.29927796       2.94194081      -0.01516867       0.03194164      -0.03240802
Sn       0.65345122       0.93222247       4.98046924       0.00309898       0.00747493       0.01341272
12
Lattice="4.108247413613452 0.0 0.0004449056592924522 -0.00012714152226100503 4.219647957662632 0.0011957797006673491 0.0 0.0 12.37639561317113" Properties=species:S:1:pos:R:3:forces:R:3 structure_index=1 total_energy=-34.93080520629883 stress="-0.021868623793125153 -0.00010047975229099393 -3.169955380144529e-05 -0.00010051243589259684 -0.0014588613994419575 0.00040889534284360707 -3.164417648804374e-05 0.00040885014459490776 -0.0046167741529643536" pbc="T T T"
Li       3.27125665       2.47245754      10.28148569       0.00042787       0.00049471      -0.00121433
Li       3.27103165       0.36312589       4.09208491       0.00016724       0.00005857      -0.00154945
Li       1.21644899       2.47505240      12.15463537       0.00050822      -0.00075769      -0.03065447
Li       3.27166909       2.47267030       6.20128261       0.00024305      -0.00009255       0.00394576
Li       3.27084050       2.47397471       1.97490777       0.00000971      -0.00035431      -0.00072259
Li       1.21846649       2.47105843       8.40133737      -0.00033212       0.00080798       0.03396243
Ga       1.21690500       2.47285448       4.09289380       0.00012187       0.00018607      -0.00134264
Ga       3.27087293       0.36474575      12.21149801       0.00039232      -0.00084541      -0.03231841
Ga       1.21830730       0.36291136      10.27951010      -0.00048656       0.00023470      -0.00080631
Ga       3.27286174       0.36248765       8.34775410      -0.00063020      -0.00023140       0.03126631
Sn       1.21697377       0.36345909       1.93459303      -0.00042940       0.00099002      -0.00510217
Sn       1.21774244       0.36288368       6.24721465       0.00000801      -0.00049071       0.00453587
10
Lattice="4.235374118742775 0.0 0.000187240717479081 0.000995751608993613 4.135669894780993 -0.8210028743752696 0.0 0.0 10.724244444700869" Properties=species:S:1:pos:R:3:forces:R:3 structure_index=2 total_energy=-30.072011947631836 stress="0.00708277290686965 0.0011470831232145429 0.0001928855199366808 0.0011471122270449996 -0.00707364222034812 0.0038321325555443764 0.00019286407041363418 0.003832180518656969 0.0050253355875611305" pbc="T T T"
Li       2.77191273       1.55170062       5.90027926      -0.00065320      -0.00668349      -0.02720846
Li       0.65378941       2.80405016       1.45578269      -0.00082644      -0.00185711      -0.00386564
Li       0.65250989       0.33745261      10.59471343      -0.00032498       0.00298083       0.01709155
Li       0.65282099       1.99332445       8.12328627       0.00011765       0.00758451       0.02934938
Ga       0.65328481       1.13442722       3.82604116      -0.00040485      -0.00753338      -0.01177888
Ga       2.77152252       3.20354297       3.46355299       0.00004637       0.00698454       0.01795444
Ga       2.77108059       4.06211614       7.68929731       0.00029096      -0.00766738      -0.01384716
Ga       2.76994565       0.74975580       1.96000106       0.00102867       0.00489705       0.00566500
Sn       0.65394781       3.65568626       5.67871238       0.00023184      -0.00556022      -0.03963034
Sn       2.77047850       2.38801336      10.10005146       0.00049398       0.00685463       0.02627010
6
Lattice="4.389352903058271 0.0 0.0022633999669746927 -2.1921049918990243 3.8012787488391324 -4.266422429806298e-06 0.0 0.0 7.025651531766537" Properties=species:S:1:pos:R:3:forces:R:3 structure_index=3 total_energy=-18.289878845214844 stress="-0.011455697938799858 0.008965126238763332 0.004094383213669062 0.008965067565441132 -0.008557564578950405 0.0038160996045917273 0.004094348754733801 0.003815978765487671 0.008436016738414764" pbc="T T T"
Li       2.01759813       0.43400033       0.46294469      -0.00165131      -0.00001003      -0.00416891
Li       2.01613816       0.43315493       4.31054143      -0.00046582       0.00079215      -0.01023446
Ga       2.01813035       2.96851983       6.27316722      -0.00079136      -0.00114831      -0.01201538
Ga      -0.17850927       1.70114316       2.99488947       0.00255760      -0.00135948       0.00048812
Ga      -0.17779805       1.70101225       5.66053353       0.00103368       0.00062090       0.01528461
Sn       2.01726346       2.96808611       2.09428612      -0.00068281       0.00110475       0.01064604
8
Lattice="4.268301777501419 0.0 1.4199269372237773 1.528039784626946 4.385172869626164 2.5399584814011025 0.0 0.0 7.132387468241331" Properties=species:S:1:pos:R:3:forces:R:3 structure_index=4 total_energy=-22.250688552856445 stress="0.003912494983524084 -0.011036024428904057 0.004379467573016882 -0.011035620234906673 0.004723351448774338 0.045433711260557175 0.00437961844727397 0.04543349891901016 0.0033025750890374184" pbc="T T T"
Li       3.57257774       0.66321198       2.68344709       0.00424436      -0.00544672      -0.01381279
Li       0.17613094       0.26268828       5.77070680       0.00593293      -0.00022168      -0.01563963
Li       2.68380438       1.30197775       5.35874743       0.00007355      -0.00061964      -0.00001904
Li       0.92338983       2.34016122       3.52648391      -0.00601264       0.00006389       0.01571900
Li       1.79488850       1.93851119       8.03470024      -0.00395049       0.00692995       0.01279873
Ga       2.54123484       4.01324144       5.78980724      -0.00067344       0.01516134       0.01002981
Ga       4.35467717       2.97539251       7.46673873       0.00045641      -0.01578825      -0.00904214
Sn       3.44802904       3.49373663       3.06209534      -0.00007065      -0.00007893      -0.00003392
19
Lattice="5.808770626160257 0.0 -3.679051265335025 -1.6348172755889567 6.566073015440717 -1.2241089801799079 0.0 0.0 8.621492110169138" Properties=species:S:1:pos:R:3:forces:R:3 structure_index=5 total_energy=-54.009517669677734 stress="0.009364376775920391 0.000816873915027827 0.0009069350198842585 0.0008169937063939869 0.009947407059371471 0.0010330420918762684 0.0009069641237147152 0.0010329422075301409 0.011654993519186974" pbc="T T T"
Li       4.23000877       5.33964154       3.02679889      -0.01037432      -0.00440051      -0.00706275
Li       0.64783737       1.62745207       3.14082304      -0.00182847      -0.00407356      -0.01536527
Li       3.00645181       2.09355602       1.85788096       0.01443472      -0.00060363       0.01085795
Li       2.18651251       2.12640933       5.42670299      -0.00574105       0.00144443      -0.01242118
Li       0.69468928       6.08218784       5.23301813      -0.00269540       0.00383990       0.00159581
Li       2.54356489       4.60893438       0.91592099      -0.00608617      -0.01160808      -0.01196161
Li      -0.79936539       5.26054782       2.85683879      -0.01184784       0.01646807       0.01363502
Li       4.42654105       2.79797445       4.01210502       0.01490153       0.01371592       0.03032758
Ga       3.90208688       0.08810115      -0.06503944       0.00546132      -0.00365885       0.00136967
Ga       1.84149180       4.12676881       3.58923432      -0.00426765       0.00864574       0.00815829
Ga       1.01561148       4.18022420      -1.33741411       0.00235271       0.00786733      -0.01572253
Ga       3.23912702       0.07712302       3.84706356       0.00014308      -0.02163577      -0.00702222
Ga       3.70224760       2.82098735      -0.93322051      -0.00114287      -0.00881082      -0.00980405
Ga       3.35422265       4.75421014      -2.90568091      -0.00806981       0.00670869       0.00031871
Ga      -0.04057069       6.07096657       0.31980825      -0.00101610      -0.00876683      -0.01273399
Ga       1.27699331       1.65137398      -0.20605483       0.00739740       0.02020855       0.03448161
Ga      -0.39645753       3.49545555       4.97293899       0.01026367      -0.00419248      -0.02085636
Ga       4.74425901       0.90917382      -2.57316828      -0.01051011      -0.01527886      -0.00182544
Sn       5.53089264       0.74380284       2.20029090       0.00862540       0.00413078       0.01403078
9
Lattice="4.520209614073164 0.0 -0.0003560025628515571 -2.261534017534292 3.915177831800288 -0.0032253594011438726 0.0 0.0 10.182525681188057" Properties=species:S:1:pos:R:3:forces:R:3 structure_index=6 total_energy=-27.686803817749023 stress="0.04141168296337128 -0.00943823903799057 -0.0025823048781603575 -0.009438195265829563 0.03473123162984848 -0.005942040588706732 -0.002582328161224723 -0.005941979121416807 -0.00677891168743372" pbc="T T T"
Li      -0.38239169       2.76147111       0.51757720       0.00128407      -0.00043941      -0.00073928
Li      -0.37798297       2.76011163       7.16093512      -0.00054254      -0.00006264      -0.02979152
Li      -0.37791259       2.75740013       4.04446906      -0.00096348       0.00151899       0.03095309
Ga       1.88095850       1.45548012       1.82739519      -0.00002281      -0.00260924       0.01488993
Ga       1.88010385       1.45596649       9.38822805       0.00519960      -0.00123372      -0.03876569
Ga       1.87938707       1.45665927       5.62637706       0.00330650      -0.00118259       0.02334631
Ga       4.14099834       0.15099814       5.59698301      -0.00246208       0.00047992      -0.00221752
Sn       4.14273875       0.14988811       8.56160467      -0.00542189       0.00086171      -0.01728227
Sn       4.14167039       0.14936236       2.64797867      -0.00037736       0.00266698       0.01960696
11
Lattice="4.472420084814776 0.0 -1.3635672399585972 0.006341511486854646 5.360669730392016 0.022994298194235024 0.0 0.0 8.01689093502017" Properties=species:S:1:pos:R:3:forces:R:3 structure_index=7 total_energy=-30.987972259521484 stress="-0.019589340314269066 -0.001149729359894991 -8.316135790664703e-05 -0.0011495469370856881 -0.029018213972449303 -0.0029569617472589016 -8.311944111483172e-05 -0.0029569491744041443 -0.020280180498957634" pbc="T T T"
Li       1.58298044       4.59984627       5.71738920      -0.00644115      -0.01004230      -0.02447614
Li       3.22280057       0.24820962       3.07901055      -0.00070561      -0.03630348      -0.01330023
Li       2.02686413       2.29724054       7.16657299       0.00672433       0.01764031       0.02026906
Li       0.75428441       4.24134738       2.99475160      -0.00582359       0.04560583      -0.01270628
Li       4.42759044       3.72421171      -0.99322067       0.00217488      -0.00515911       0.01152555
Li       2.84197185       2.66514871       1.83102556       0.00953282       0.03456096       0.02798359
Li       4.01775357       0.75995149       5.67470931      -0.00804638       0.02070412      -0.01834207
Ga       3.64678097       3.28718175       4.47150981       0.00345025      -0.00398653      -0.00261851
Ga       0.33648332       1.38592841       1.62982527       0.01013268      -0.01314032       0.02343282
Sn       1.18923284       1.76828020       4.41961206       0.00160419      -0.03455857       0.02295838
Sn       2.41454401       5.13661394       0.42373220      -0.01260242      -0.01532092      -0.03472621
12
Lattice="4.267370770886618 0.0 0.9810953337911176 -2.0915493018614737 5.116920118887337 -0.6735523382974011 0.0 0.0 9.769515230348915" Properties=species:S:1:pos:R:3:forces:R:3 structure_index=8 total_energy=-34.744239807128906 stress="-0.012113743461668491 -0.0003345882287248969 0.002551743993535638 -0.00033488337066955864 -0.0179972592741251 -0.0005763260996900499 0.0025519735645502806 -0.0005762505461461842 -0.02339167147874832" pbc="T T T"
Li       1.66393182       4.62752523       8.17721876       0.00100914       0.02264119      -0.00376486
Li       2.16852890       2.97315674       5.97829819      -0.00151467      -0.00011092       0.00710757
Li       1.05580192       3.23501607       1.05067260      -0.00186406      -0.01792738       0.00729222
Li       2.63885261       0.54049307       3.92946096      -0.00308776       0.03282353       0.01351560
Li       1.61431077       1.50377755       8.39478098      -0.00186304      -0.00265836       0.00583793
Ga      -0.98123004       4.84230760       0.14045755       0.00128261      -0.02463991      -0.00792773
Ga      -0.02435289       1.14027008       5.74347441       0.00165467       0.01630457      -0.00296761
Ga      -0.47942180       3.11358085       7.73022449       0.00065814      -0.02055305      -0.00675888
Ga       0.40211966       2.92028258       3.89109520      -0.00048844       0.00623460      -0.00206796
Ga      -0.02145456       4.85550446       5.73159395      -0.00551115      -0.02891815       0.02506094
Ga       2.80980578       3.34139376       3.18953132       0.00267890      -0.01394574      -0.00712395
Sn       3.26592318       1.32579553       1.20889561       0.00704569       0.03074961      -0.02820330
15
Lattice="6.809295534903256 0.0 -2.7534110750809884 -2.0437509838903996 6.173455420540741 -0.6234305504861168 0.0 0.0 7.105403048331486" Properties=species:S:1:pos:R:3:forces:R:3 structure_index=9 total_energy=-46.50779724121094 stress="0.01975293643772602 0.00651472108438611 -0.0032782042399048805 0.0065147727727890015 0.010147164575755596 0.0063712517730891705 -0.0032781027257442474 0.0063712578266859055 0.017510220408439636" pbc="T T T"
Li       4.09371432       1.47557246       2.06229772      -0.00083492      -0.00153476      -0.00105649
Ga       6.16124726       1.40979319      -0.03527268      -0.02203771      -0.00402554       0.00961193
Ga       3.49560526       4.01989256       3.13438091      -0.02034046       0.00854180       0.01583767
Ga       4.78567996       5.05125560      -1.56844433      -0.02155025       0.00815621       0.01876607
Ga       1.35328727       4.07273340       5.08246735       0.02287020      -0.01501045      -0.02164168
Ga       2.64718982       5.10827028       0.36241984       0.01857456      -0.01191062      -0.01509171
Ga       4.59519633       0.30317527       4.81893352      -0.00588909       0.00902415       0.00106374
Ga       6.63226545       0.24649794       2.54260581       0.01363120      -0.02335933      -0.02392255
Ga       3.58937322       2.63459007      -0.69013190       0.00709883      -0.00061952       0.00033114
Ga       2.03787381       1.55839646       4.15452949       0.01496477      -0.00974389      -0.00509673
Ga       0.62092851       5.23597781       2.40076610       0.01005935      -0.00794406       0.00652962
Ga       1.55983978       2.70492882       1.56797830      -0.00673004       0.02737093       0.02550647
Ga      -1.28266583       3.88307119       3.86070652      -0.01387724       0.01498682      -0.01143087
Sn       2.07645659       0.17040850       0.06998720      -0.02852016       0.00050789      -0.00549559
Sn      -0.71221194       2.76929630      -0.29220136       0.03258095       0.00556035       0.00608898
12
Lattice="4.087459969365411 0.0 1.2462887549635562 2.484710210614198 6.764455499751767 -0.8884701024395376 0.0 0.0 7.261161398708843" Properties=species:S:1:pos:R:3:forces:R:3 structure_index=10 total_energy=-34.07853317260742 stress="0.011653933674097061 -0.028567029163241386 -0.014469045214354992 -0.028567258268594742 -0.0025378684513270855 0.0032484265975654125 -0.01446888130158186 0.003248685272410512 -0.019455663859844208" pbc="T T T"
Li       2.80635296       2.37166945       6.23716163       0.00117852       0.00495208      -0.00451801
Li       2.79460492       5.12620366       6.19071487       0.01895845      -0.02866196      -0.01759454
Li       4.40847114       1.17595910       8.30659319       0.00452030       0.00995304      -0.01600232
Li       3.60180743       4.53991286       3.62481379      -0.00057208      -0.00539683       0.00425491
Li       6.08613159       5.73863355       2.80329447      -0.00489036      -0.01123949       0.01480966
Li       3.61229867       1.78705021       3.67220104      -0.01804456       0.02784560       0.01692735
Ga       1.09727720       0.58449227       4.54636641       0.00943926       0.02428870      -0.01486007
Ga       4.40664686       3.86977984       1.01692039       0.00429338       0.01020256      -0.02744195
Ga       5.30955569       6.32570512       5.31712835      -0.00902215      -0.02302590       0.01497400
Ga       2.00103181       3.04392002       1.58168044      -0.00411839      -0.00999116       0.02884508
Ga       5.24877397       3.45447001       5.55337938      -0.00244405       0.00251270       0.00133082
Sn       1.96112584       0.07480648       1.74506822       0.00070164      -0.00143928      -0.00072496
4
Lattice="4.228491747129948 0.0 0.005613922713003098 0.011410837564357689 4.23459202556955 0.002098244397439512 0.0 0.0 4.243369932951153" Properties=species:S:1:pos:R:3:forces:R:3 structure_index=11 total_energy=-12.038469314575195 stress="-0.08744495362043381 0.016846884042024612 0.008320148102939129 0.016846884042024612 -0.08602625876665115 0.0033257866743952036 0.008320117369294167 0.0033258621115237474 -0.08400824666023254" pbc="T T T"
Ga       2.06367942       1.85501586       2.86671656       0.00024695       0.00140141      -0.00193468
Ga       4.18507315       3.97376481       2.87081982      -0.00217145      -0.00068857      -0.00218823
Ga       4.17636110       1.85693134       0.74761443       0.00070801      -0.00043935       0.00117471
Ga       2.06833921       3.97337562       0.74400431       0.00121649      -0.00027349       0.00294821
12
Lattice="4.495195945026458 0.0 -0.0002948885134085548 -2.2489878177292884 3.8927881794175523 -0.00020985610042082933 0.0 0.0 15.006151105803035" Properties=species:S:1:pos:R:3:forces:R:3 structure_index=12 total_energy=-38.4468994140625 stress="-0.007082745432853699 -0.007648535538464785 -0.00036054031806997955 -0.007648504339158535 -0.013638405129313469 -0.00018755671044345945 -0.00036070283385924995 -0.0001875555608421564 -0.011524375528097153" pbc="T T T"
Li       1.75381314       2.87212098       0.91113587       0.00120294      -0.00083707       0.00166400
Li       1.75626195       2.86756682      12.24373286      -0.00065450       0.00054134       0.01273861
Li      -0.49268627       1.57351142       4.68785587       0.00016340       0.00003185       0.01815992
Li       1.75095518       2.86936944       8.54289586       0.00093243       0.00009347       0.04947796
Ga      -0.49421485       1.57120178       9.79397073       0.00143306      -0.00016758       0.01776215
Ga      -0.49255771       1.57427996       2.10424397       0.00087349      -0.00089468      -0.03667579
Ga      -0.49507118       1.57351477       7.25127081       0.00162878      -0.00106120      -0.01426927
Ga       1.75677666       0.27380469      13.47529561      -0.00214666       0.00087556      -0.02548504
Sn       1.75578821       0.27635328       3.10461814      -0.00176536       0.00050504      -0.01163859
Sn      -0.49165122       1.57204795      14.37007369       0.00078890      -0.00029949      -0.00516209
Sn       1.75395062       0.27602753       6.21157351      -0.00109860       0.00007836       0.00598641
Sn       1.75465714       0.27316479      10.67875637      -0.00135789       0.00113440      -0.01255823
16
Lattice="5.305377260167426 0.0 -0.004678948167238114 -0.001662262043394729 6.028356056393177 -0.0012097571081983946 0.0 0.0 9.507445055125672" Properties=species:S:1:pos:R:3:forces:R:3 structure_index=13 total_energy=-47.8422737121582 stress="0.025143953040242195 -0.000949580455198884 -0.0011754134902730584 -0.0009496521088294685 -0.02159840613603592 -0.0008835617918521166 -0.0011755248997360468 -0.000883593806065619 -0.003670817706733942" pbc="T T T"
Li       1.42078796       3.17411226       6.37143879      -0.02107237      -0.00033929       0.00248195
Li       3.31094350       3.17006231       1.61812596       0.02029053       0.00112490       0.00267427
Li       4.07144390       4.70483595       6.37217346      -0.02006219      -0.00044544      -0.00031048
Li       2.36637989       1.66263414       3.99927030       0.00029771      -0.00267327      -0.00083854
Li       5.01828054       0.18031546       8.74936641      -0.00028957       0.00485655       0.00175071
Li       0.65804266       4.70003847       1.62385326       0.01953312       0.00096991       0.00000279
Li       5.02088775       0.17882500       3.99881966      -0.00104663       0.00394810      -0.00158795
Li       2.36452575       1.66584237       8.75449106       0.00013731      -0.00331915      -0.00229462
Ga       2.36614451       4.57598835       8.75027115      -0.00129310       0.03816549       0.00036171
Ga       5.01855104       3.29125726       3.99715954      -0.00106619      -0.02944577      -0.00170538
Ga       5.02106242       3.29980533       8.75288398      -0.00096913      -0.03917643      -0.00388758
Ga       2.36525705       4.58052206       3.99737899       0.00058771       0.03135709       0.00122436
Sn       3.21227059       0.08155464       1.61931082      -0.00984765      -0.01010078       0.00262283
Sn       4.17044089       1.76637752       6.37605959       0.01299069       0.00693711       0.00060618
Sn       1.51833468       0.08455014       6.37956261       0.01284802      -0.01030544      -0.00193294
Sn       0.55926425       1.76165698       1.62386456      -0.01103827       0.00844639       0.00083270
18
Lattice="4.66242751636834 0.0 7.188405490176356e-05 0.0001383200826549409 8.11274601740588 -0.051432571600361396 0.0 0.0 8.546477559842836" Properties=species:S:1:pos:R:3:forces:R:3 structure_index=14 total_energy=-51.18745422363281 stress="0.018143612891435623 0.00017128953186329454 0.00032087668660096824 0.00017129461048170924 0.021798918023705482 -0.002207220299169421 0.0003209246788173914 -0.0022072831634432077 0.02347634732723236" pbc="T T T"
Li       2.99619757       2.03097777       3.83136104      -0.00009319       0.00375485       0.02514085
Li       2.99590758       4.68678037       7.65115054       0.00016922      -0.00287258       0.00374187
Li       0.66534988       3.28982357       2.68703190      -0.00044174       0.00144249      -0.00447703
Li       0.66487743       3.32535595       8.48499411       0.00023684       0.00233660       0.00251048
Li       0.66465264       6.08397392       6.36732449       0.00015053      -0.00720373      -0.00335737
Li       0.66399416       0.67615512       7.64260087       0.00058424      -0.00153362       0.00067284
Li       2.99586492       7.45258266       8.42351255       0.00025049       0.00191922       0.00861200
Li       2.99666692       7.51003453       2.62626996       0.00016531       0.00241897      -0.00769802
Li       0.66543767       0.62184087       1.84715397      -0.00044981       0.00373661      -0.01298293
Li       0.66409402       3.28169708       5.58807886       0.00050029      -0.00982560      -0.01006499
Li       2.99610332       7.49183739       5.49163483      -0.00026271       0.00055067      -0.02076706
Li       2.99617487       4.75609968       1.84446729       0.00042243       0.00485931       0.00773983
Ga       0.66543793       6.07248821       3.56247554      -0.00060802      -0.00481531      -0.00129613
Ga       2.99541351       1.98792568       6.64343937      -0.00013311       0.00506091      -0.01529416
Sn       2.99639950       2.01917367       0.90084102      -0.00047455      -0.00289206      -0.00360417
Sn       2.99601549       4.76248692       4.69376585       0.00015314      -0.00161921       0.04112644
Sn       0.66508832       6.05998600       0.71597056      -0.00077255       0.00171844      -0.01830359
Sn       0.66470812       0.62213491       4.68795616       0.00060321       0.00296400       0.00830117
10
Lattice="3.3253222691532156 0.0 -0.00017958108558689342 -0.0006387925526425784 3.3286818157266267 -0.0006551312761263274 0.0 0.0 15.846239331029222" Properties=species:S:1:pos:R:3:forces:R:3 structure_index=15 total_energy=-29.385284423828125 stress="0.03390922397375107 -0.002215480664744973 -0.0008212204556912184 -0.0022155106998980045 0.03859090432524681 -0.002362825209274888 -0.0008212318643927574 -0.0023627309128642082 -0.02417650818824768" pbc="T T T"
Li       2.16937003       1.50153177       2.25728442      -0.00076509      -0.00006176       0.00079720
Li       2.16687596       1.50219512       8.73017625       0.00088148      -0.00024859       0.01254384
Li       2.16939858       1.50102620      11.70506705      -0.00120326       0.00039758      -0.01099815
Li       2.16811288       1.50118703       5.21724647      -0.00038222       0.00071027      -0.00879673
Li       2.16847970       1.50189556      14.64183785       0.00012293      -0.00079891      -0.02111723
Ga       0.50504421       3.16619870       3.71777918       0.00095699      -0.00062125       0.02833382
Ga       0.50533509       3.16596977      10.25728760      -0.00011992      -0.00016962      -0.01809029
Ga       0.50518315       3.16564643      13.14666343       0.00103578       0.00020529      -0.00494136
Sn       0.50462640       3.16632134       6.96097704      -0.00006296      -0.00030087       0.02921775
Sn       0.50623965       3.16531127       0.52095887      -0.00046374       0.00088787      -0.00694885
12
Lattice="4.563540281081859 0.0 -0.0005972178854323282 0.006761970540796161 5.680612274832798 0.015170915722036405 0.0 0.0 7.909653573312561" Properties=species:S:1:pos:R:3:forces:R:3 structure_index=16 total_energy=-33.35767364501953 stress="0.010886229574680328 0.008786103688180447 -0.005776443053036928 0.008786131627857685 0.020901568233966827 0.009500139392912388 -0.0057766917161643505 0.009500229731202126 0.02196269854903221" pbc="T T T"
Li       3.99821943       0.21293457       4.23508245      -0.00259590      -0.02953229      -0.00085078
Li       1.71887799       3.05091405       0.28866280      -0.00022700      -0.02955394       0.00306830
Li       1.71496692       0.31529136       5.52765975       0.00402273       0.03461123       0.00285776
Li       4.00017469       3.15135163       1.58725298       0.00234156       0.02881693      -0.00687057
Li       1.72005256       3.17572919       5.56473376       0.00146587       0.00988636      -0.00180451
Li       3.99758792       0.32730793       1.60144598       0.00183295       0.01506009      -0.00658178
Li       4.00320695       3.03588923       4.21854488      -0.00271816      -0.01330397       0.00421185
Li       1.71735544       0.19227545       0.25120727      -0.00202616      -0.01104274       0.00823856
Ga       4.00375179       4.52533746       6.86980482      -0.00093149      -0.00074007       0.00362056
Ga       1.71769139       1.68165994       2.90897150       0.00058409       0.00174820       0.00050726
Sn       1.72146066       4.52231762       2.91824403      -0.00022140       0.00050072      -0.00545395
Sn       4.00000633       1.68570691       6.86467436      -0.00152713      -0.00645052      -0.00094266
12
Lattice="4.403453478902031 0.0 5.736680751543114e-05 -7.640510791470545e-05 4.424641215369863 -0.0007874234328060981 0.0 0.0 12.276078145134397" Properties=species:S:1:pos:R:3:forces:R:3 structure_index=17 total_energy=-36.87135314941406 stress="0.015499141998589039 -0.00013495553866960108 1.2156944649177603e-05 -0.00013498969201464206 0.025837492197752 -0.0003297731454949826 1.2035295185341965e-05 -0.00032972166081890464 0.015216989442706108" pbc="T T T"
Li       0.80422569       1.11989348       7.01850023       0.00017597       0.00060370      -0.00904576
Li       0.80460154       3.33276888       9.19198478      -0.00013168       0.00028369      -0.00386166
Li       3.00648404       3.33527499       2.72025854      -0.00030409      -0.00121882      -0.01018742
Li       3.00564622       1.12234367       0.74859480       0.00043559      -0.00036999       0.01645728
Li       0.80458010       1.12100057       2.85195018      -0.00026086       0.00030729      -0.01891078
Li       3.00600334       3.33428633      11.19490969      -0.00004962      -0.00081184       0.01803050