phonopy:
  version: "2.37.1"
  frequency_unit_conversion_factor: 15.633302
  symmetry_tolerance: 1.00000e-05

space_group:
  type: "P1"
  number: 1
  Hall_symbol: "P 1"

primitive_matrix:
- [ -1.000000000000000, -0.000000000000000,  0.000000000000000 ]
- [  0.000000000000000,  1.000000000000000, -0.000000000000000 ]
- [  0.000000000000000,  0.000000000000000, -1.000000000000000 ]

supercell_matrix:
- [   2,   0,   0 ]
- [   0,   2,   0 ]
- [   0,   0,   2 ]

primitive_cell:
  lattice:
  - [    -5.657991497351353,     0.000000000000000,     0.000000000000000 ] # a
  - [    -0.000471114861804,     6.222313272136024,     0.000000000000000 ] # b
  - [    -0.000359294412486,     0.000718929879802,    -9.800445240361265 ] # c
  points:
  - symbol: Sn # 1
    coordinates: [  0.203227613857592,  0.963250102457448,  0.224808942201190 ]
    mass: 118.710000
  - symbol: Sn # 2
    coordinates: [  0.202307702790759,  0.963975693845499,  0.892544868354135 ]
    mass: 118.710000
  - symbol: Sn # 3
    coordinates: [  0.702468616302823,  0.964162279885035,  0.059265894227197 ]
    mass: 118.710000
  - symbol: Sn # 4
    coordinates: [  0.202998493167051,  0.463776078956785,  0.558980854246099 ]
    mass: 118.710000
  - symbol: Sn # 5
    coordinates: [  0.203035325243402,  0.463264890115921,  0.224248179957067 ]
    mass: 118.710000
  - symbol: Sn # 6
    coordinates: [  0.702382408824171,  0.463954077738342,  0.725388679551715 ]
    mass: 118.710000
  - symbol: Sn # 7
    coordinates: [  0.702763483697483,  0.464296290463213,  0.059858803940390 ]
    mass: 118.710000
  - symbol: Sn # 8
    coordinates: [  0.202217452353175,  0.464099225171201,  0.891910946888054 ]
    mass: 118.710000
  - symbol: Sn # 9
    coordinates: [  0.702434452444481,  0.962692574739735,  0.726185646503333 ]
    mass: 118.710000
  - symbol: Sn # 10
    coordinates: [  0.702885203765892,  0.464131089507359,  0.391860906170654 ]
    mass: 118.710000
  - symbol: Sn # 11
    coordinates: [  0.202750628860695,  0.964898378449464,  0.558637052342448 ]
    mass: 118.710000
  - symbol: Sn # 12
    coordinates: [  0.702997420428545,  0.963723953309498,  0.392261922120749 ]
    mass: 118.710000
  reciprocal_lattice: # without 2pi
  - [    -0.176741163444329,    -0.000013381741669,     0.000006478531372 ] # a*
  - [    -0.000000000000000,     0.160711934013042,     0.000011789322686 ] # b*
  - [    -0.000000000000000,     0.000000000000000,    -0.102036180548379 ] # c*

unit_cell:
  lattice:
  - [     5.657991497351353,     0.000000000000000,     0.000000000000000 ] # a
  - [    -0.000471114861804,     6.222313272136024,     0.000000000000000 ] # b
  - [     0.000359294412486,    -0.000718929879802,     9.800445240361265 ] # c
  points:
  - symbol: Sn # 1
    coordinates: [  0.796772386142408,  0.963250102457448,  0.775191057798810 ]
    mass: 118.710000
    reduced_to: 1
  - symbol: Sn # 2
    coordinates: [  0.797692297209241,  0.963975693845499,  0.107455131645865 ]
    mass: 118.710000
    reduced_to: 2
  - symbol: Sn # 3
    coordinates: [  0.297531383697177,  0.964162279885035,  0.940734105772803 ]
    mass: 118.710000
    reduced_to: 3
  - symbol: Sn # 4
    coordinates: [  0.797001506832949,  0.463776078956785,  0.441019145753901 ]
    mass: 118.710000
    reduced_to: 4
  - symbol: Sn # 5
    coordinates: [  0.796964674756598,  0.463264890115921,  0.775751820042933 ]
    mass: 118.710000
    reduced_to: 5
  - symbol: Sn # 6
    coordinates: [  0.297617591175829,  0.463954077738342,  0.274611320448285 ]
    mass: 118.710000
    reduced_to: 6
  - symbol: Sn # 7
    coordinates: [  0.297236516302517,  0.464296290463213,  0.940141196059610 ]
    mass: 118.710000
    reduced_to: 7
  - symbol: Sn # 8
    coordinates: [  0.797782547646825,  0.464099225171201,  0.108089053111946 ]
    mass: 118.710000
    reduced_to: 8
  - symbol: Sn # 9
    coordinates: [  0.297565547555519,  0.962692574739735,  0.273814353496667 ]
    mass: 118.710000
    reduced_to: 9
  - symbol: Sn # 10
    coordinates: [  0.297114796234108,  0.464131089507359,  0.608139093829346 ]
    mass: 118.710000
    reduced_to: 10
  - symbol: Sn # 11
    coordinates: [  0.797249371139305,  0.964898378449464,  0.441362947657552 ]
    mass: 118.710000
    reduced_to: 11
  - symbol: Sn # 12
    coordinates: [  0.297002579571455,  0.963723953309498,  0.607738077879251 ]
    mass: 118.710000
    reduced_to: 12

supercell:
  lattice:
  - [    11.315982994702706,     0.000000000000000,     0.000000000000000 ] # a
  - [    -0.000942229723607,    12.444626544272047,     0.000000000000000 ] # b
  - [     0.000718588824972,    -0.001437859759604,    19.600890480722530 ] # c
  points:
  - symbol: Sn # 1
    coordinates: [  0.398386193071204,  0.481625051228724,  0.387595528899405 ]
    mass: 118.710000
    reduced_to: 1
  - symbol: Sn # 2
    coordinates: [  0.898386193071204,  0.481625051228724,  0.387595528899405 ]
    mass: 118.710000
    reduced_to: 1
  - symbol: Sn # 3
    coordinates: [  0.398386193071204,  0.981625051228724,  0.387595528899405 ]
    mass: 118.710000
    reduced_to: 1
  - symbol: Sn # 4
    coordinates: [  0.898386193071204,  0.981625051228724,  0.387595528899405 ]
    mass: 118.710000
    reduced_to: 1
  - symbol: Sn # 5
    coordinates: [  0.398386193071204,  0.481625051228724,  0.887595528899405 ]
    mass: 118.710000
    reduced_to: 1
  - symbol: Sn # 6
    coordinates: [  0.898386193071204,  0.481625051228724,  0.887595528899405 ]
    mass: 118.710000
    reduced_to: 1
  - symbol: Sn # 7
    coordinates: [  0.398386193071204,  0.981625051228724,  0.887595528899405 ]
    mass: 118.710000
    reduced_to: 1
  - symbol: Sn # 8
    coordinates: [  0.898386193071204,  0.981625051228724,  0.887595528899405 ]
    mass: 118.710000
    reduced_to: 1
  - symbol: Sn # 9
    coordinates: [  0.398846148604620,  0.481987846922749,  0.053727565822933 ]
    mass: 118.710000
    reduced_to: 9
  - symbol: Sn # 10
    coordinates: [  0.898846148604620,  0.481987846922749,  0.053727565822933 ]
    mass: 118.710000
    reduced_to: 9
  - symbol: Sn # 11
    coordinates: [  0.398846148604620,  0.981987846922749,  0.053727565822933 ]
    mass: 118.710000
    reduced_to: 9
  - symbol: Sn # 12
    coordinates: [  0.898846148604620,  0.981987846922749,  0.053727565822933 ]
    mass: 118.710000
    reduced_to: 9
  - symbol: Sn # 13
    coordinates: [  0.398846148604620,  0.481987846922749,  0.553727565822933 ]
    mass: 118.710000
    reduced_to: 9
  - symbol: Sn # 14
    coordinates: [  0.898846148604620,  0.481987846922749,  0.553727565822933 ]
    mass: 118.710000
    reduced_to: 9
  - symbol: Sn # 15
    coordinates: [  0.398846148604620,  0.981987846922749,  0.553727565822933 ]
    mass: 118.710000
    reduced_to: 9
  - symbol: Sn # 16
    coordinates: [  0.898846148604620,  0.981987846922749,  0.553727565822933 ]
    mass: 118.710000
    reduced_to: 9
  - symbol: Sn # 17
    coordinates: [  0.148765691848589,  0.482081139942517,  0.470367052886402 ]
    mass: 118.710000
    reduced_to: 17
  - symbol: Sn # 18
    coordinates: [  0.648765691848589,  0.482081139942517,  0.470367052886402 ]
    mass: 118.710000
    reduced_to: 17
  - symbol: Sn # 19
    coordinates: [  0.148765691848589,  0.982081139942517,  0.470367052886402 ]
    mass: 118.710000
    reduced_to: 17
  - symbol: Sn # 20
    coordinates: [  0.648765691848589,  0.982081139942517,  0.470367052886402 ]
    mass: 118.710000
    reduced_to: 17
  - symbol: Sn # 21
    coordinates: [  0.148765691848589,  0.482081139942517,  0.970367052886401 ]
    mass: 118.710000
    reduced_to: 17
  - symbol: Sn # 22
    coordinates: [  0.648765691848589,  0.482081139942517,  0.970367052886401 ]
    mass: 118.710000
    reduced_to: 17
  - symbol: Sn # 23
    coordinates: [  0.148765691848589,  0.982081139942517,  0.970367052886401 ]
    mass: 118.710000
    reduced_to: 17
  - symbol: Sn # 24
    coordinates: [  0.648765691848589,  0.982081139942517,  0.970367052886401 ]
    mass: 118.710000
    reduced_to: 17
  - symbol: Sn # 25
    coordinates: [  0.398500753416475,  0.231888039478393,  0.220509572876951 ]
    mass: 118.710000
    reduced_to: 25
  - symbol: Sn # 26
    coordinates: [  0.898500753416475,  0.231888039478393,  0.220509572876951 ]
    mass: 118.710000
    reduced_to: 25
  - symbol: Sn # 27
    coordinates: [  0.398500753416475,  0.731888039478393,  0.220509572876951 ]
    mass: 118.710000
    reduced_to: 25
  - symbol: Sn # 28
    coordinates: [  0.898500753416475,  0.731888039478393,  0.220509572876951 ]
    mass: 118.710000
    reduced_to: 25
  - symbol: Sn # 29
    coordinates: [  0.398500753416475,  0.231888039478393,  0.720509572876951 ]
    mass: 118.710000
    reduced_to: 25
  - symbol: Sn # 30
    coordinates: [  0.898500753416475,  0.231888039478393,  0.720509572876951 ]
    mass: 118.710000
    reduced_to: 25
  - symbol: Sn # 31
    coordinates: [  0.398500753416475,  0.731888039478393,  0.720509572876951 ]
    mass: 118.710000
    reduced_to: 25
  - symbol: Sn # 32
    coordinates: [  0.898500753416475,  0.731888039478393,  0.720509572876951 ]
    mass: 118.710000
    reduced_to: 25
  - symbol: Sn # 33
    coordinates: [  0.398482337378299,  0.231632445057960,  0.387875910021466 ]
    mass: 118.710000
    reduced_to: 33
  - symbol: Sn # 34
    coordinates: [  0.898482337378299,  0.231632445057960,  0.387875910021466 ]
    mass: 118.710000
    reduced_to: 33
  - symbol: Sn # 35
    coordinates: [  0.398482337378299,  0.731632445057960,  0.387875910021466 ]
    mass: 118.710000
    reduced_to: 33
  - symbol: Sn # 36
    coordinates: [  0.898482337378299,  0.731632445057960,  0.387875910021466 ]
    mass: 118.710000
    reduced_to: 33
  - symbol: Sn # 37
    coordinates: [  0.398482337378299,  0.231632445057960,  0.887875910021466 ]
    mass: 118.710000
    reduced_to: 33
  - symbol: Sn # 38
    coordinates: [  0.898482337378299,  0.231632445057960,  0.887875910021466 ]
    mass: 118.710000
    reduced_to: 33
  - symbol: Sn # 39
    coordinates: [  0.398482337378299,  0.731632445057960,  0.887875910021466 ]
    mass: 118.710000
    reduced_to: 33
  - symbol: Sn # 40
    coordinates: [  0.898482337378299,  0.731632445057960,  0.887875910021466 ]
    mass: 118.710000
    reduced_to: 33
  - symbol: Sn # 41
    coordinates: [  0.148808795587915,  0.231977038869171,  0.137305660224142 ]
    mass: 118.710000
    reduced_to: 41
  - symbol: Sn # 42
    coordinates: [  0.648808795587915,  0.231977038869171,  0.137305660224142 ]
    mass: 118.710000
    reduced_to: 41
  - symbol: Sn # 43
    coordinates: [  0.148808795587915,  0.731977038869171,  0.137305660224142 ]
    mass: 118.710000
    reduced_to: 41
  - symbol: Sn # 44
    coordinates: [  0.648808795587915,  0.731977038869171,  0.137305660224142 ]
    mass: 118.710000
    reduced_to: 41
  - symbol: Sn # 45
    coordinates: [  0.148808795587915,  0.231977038869171,  0.637305660224142 ]
    mass: 118.710000
    reduced_to: 41
  - symbol: Sn # 46
    coordinates: [  0.648808795587915,  0.231977038869171,  0.637305660224142 ]
    mass: 118.710000
    reduced_to: 41
  - symbol: Sn # 47
    coordinates: [  0.148808795587915,  0.731977038869171,  0.637305660224142 ]
    mass: 118.710000
    reduced_to: 41
  - symbol: Sn # 48
    coordinates: [  0.648808795587915,  0.731977038869171,  0.637305660224142 ]
    mass: 118.710000
    reduced_to: 41
  - symbol: Sn # 49
    coordinates: [  0.148618258151258,  0.232148145231607,  0.470070598029805 ]
    mass: 118.710000
    reduced_to: 49
  - symbol: Sn # 50
    coordinates: [  0.648618258151258,  0.232148145231607,  0.470070598029805 ]
    mass: 118.710000
    reduced_to: 49
  - symbol: Sn # 51
    coordinates: [  0.148618258151258,  0.732148145231607,  0.470070598029805 ]
    mass: 118.710000
    reduced_to: 49
  - symbol: Sn # 52
    coordinates: [  0.648618258151258,  0.732148145231607,  0.470070598029805 ]
    mass: 118.710000
    reduced_to: 49
  - symbol: Sn # 53
    coordinates: [  0.148618258151258,  0.232148145231607,  0.970070598029805 ]
    mass: 118.710000
    reduced_to: 49
  - symbol: Sn # 54
    coordinates: [  0.648618258151258,  0.232148145231607,  0.970070598029805 ]
    mass: 118.710000
    reduced_to: 49
  - symbol: Sn # 55
    coordinates: [  0.148618258151258,  0.732148145231607,  0.970070598029805 ]
    mass: 118.710000
    reduced_to: 49
  - symbol: Sn # 56
    coordinates: [  0.648618258151258,  0.732148145231607,  0.970070598029805 ]
    mass: 118.710000
    reduced_to: 49
  - symbol: Sn # 57
    coordinates: [  0.398891273823413,  0.232049612585601,  0.054044526555973 ]
    mass: 118.710000
    reduced_to: 57
  - symbol: Sn # 58
    coordinates: [  0.898891273823412,  0.232049612585601,  0.054044526555973 ]
    mass: 118.710000
    reduced_to: 57
  - symbol: Sn # 59
    coordinates: [  0.398891273823413,  0.732049612585601,  0.054044526555973 ]
    mass: 118.710000
    reduced_to: 57
  - symbol: Sn # 60
    coordinates: [  0.898891273823412,  0.732049612585601,  0.054044526555973 ]
    mass: 118.710000
    reduced_to: 57
  - symbol: Sn # 61
    coordinates: [  0.398891273823413,  0.232049612585601,  0.554044526555973 ]
    mass: 118.710000
    reduced_to: 57
  - symbol: Sn # 62
    coordinates: [  0.898891273823412,  0.232049612585601,  0.554044526555973 ]
    mass: 118.710000
    reduced_to: 57
  - symbol: Sn # 63
    coordinates: [  0.398891273823413,  0.732049612585601,  0.554044526555973 ]
    mass: 118.710000
    reduced_to: 57
  - symbol: Sn # 64
    coordinates: [  0.898891273823412,  0.732049612585601,  0.554044526555973 ]
    mass: 118.710000
    reduced_to: 57
  - symbol: Sn # 65
    coordinates: [  0.148782773777759,  0.481346287369867,  0.136907176748333 ]
    mass: 118.710000
    reduced_to: 65
  - symbol: Sn # 66
    coordinates: [  0.648782773777759,  0.481346287369867,  0.136907176748333 ]
    mass: 118.710000
    reduced_to: 65
  - symbol: Sn # 67
    coordinates: [  0.148782773777759,  0.981346287369867,  0.136907176748333 ]
    mass: 118.710000
    reduced_to: 65
  - symbol: Sn # 68
    coordinates: [  0.648782773777759,  0.981346287369867,  0.136907176748333 ]
    mass: 118.710000
    reduced_to: 65
  - symbol: Sn # 69
    coordinates: [  0.148782773777759,  0.481346287369867,  0.636907176748333 ]
    mass: 118.710000
    reduced_to: 65
  - symbol: Sn # 70
    coordinates: [  0.648782773777759,  0.481346287369867,  0.636907176748333 ]
    mass: 118.710000
    reduced_to: 65
  - symbol: Sn # 71
    coordinates: [  0.148782773777759,  0.981346287369867,  0.636907176748333 ]
    mass: 118.710000
    reduced_to: 65
  - symbol: Sn # 72
    coordinates: [  0.648782773777759,  0.981346287369867,  0.636907176748333 ]
    mass: 118.710000
    reduced_to: 65
  - symbol: Sn # 73
    coordinates: [  0.148557398117054,  0.232065544753680,  0.304069546914673 ]
    mass: 118.710000
    reduced_to: 73
  - symbol: Sn # 74
    coordinates: [  0.648557398117054,  0.232065544753680,  0.304069546914673 ]
    mass: 118.710000
    reduced_to: 73
  - symbol: Sn # 75
    coordinates: [  0.148557398117054,  0.732065544753680,  0.304069546914673 ]
    mass: 118.710000
    reduced_to: 73
  - symbol: Sn # 76
    coordinates: [  0.648557398117054,  0.732065544753680,  0.304069546914673 ]
    mass: 118.710000
    reduced_to: 73
  - symbol: Sn # 77
    coordinates: [  0.148557398117054,  0.232065544753680,  0.804069546914673 ]
    mass: 118.710000
    reduced_to: 73
  - symbol: Sn # 78
    coordinates: [  0.648557398117054,  0.232065544753680,  0.804069546914673 ]
    mass: 118.710000
    reduced_to: 73
  - symbol: Sn # 79
    coordinates: [  0.148557398117054,  0.732065544753680,  0.804069546914673 ]
    mass: 118.710000
    reduced_to: 73
  - symbol: Sn # 80
    coordinates: [  0.648557398117054,  0.732065544753680,  0.804069546914673 ]
    mass: 118.710000
    reduced_to: 73
  - symbol: Sn # 81
    coordinates: [  0.398624685569653,  0.482449189224732,  0.220681473828776 ]
    mass: 118.710000
    reduced_to: 81
  - symbol: Sn # 82
    coordinates: [  0.898624685569653,  0.482449189224732,  0.220681473828776 ]
    mass: 118.710000
    reduced_to: 81
  - symbol: Sn # 83
    coordinates: [  0.398624685569653,  0.982449189224732,  0.220681473828776 ]
    mass: 118.710000
    reduced_to: 81
  - symbol: Sn # 84
    coordinates: [  0.898624685569653,  0.982449189224732,  0.220681473828776 ]
    mass: 118.710000
    reduced_to: 81
  - symbol: Sn # 85
    coordinates: [  0.398624685569653,  0.482449189224732,  0.720681473828776 ]
    mass: 118.710000
    reduced_to: 81
  - symbol: Sn # 86
    coordinates: [  0.898624685569653,  0.482449189224732,  0.720681473828776 ]
    mass: 118.710000
    reduced_to: 81
  - symbol: Sn # 87
    coordinates: [  0.398624685569653,  0.982449189224732,  0.720681473828776 ]
    mass: 118.710000
    reduced_to: 81
  - symbol: Sn # 88
    coordinates: [  0.898624685569653,  0.982449189224732,  0.720681473828776 ]
    mass: 118.710000
    reduced_to: 81
  - symbol: Sn # 89
    coordinates: [  0.148501289785728,  0.481861976654749,  0.303869038939626 ]
    mass: 118.710000
    reduced_to: 89
  - symbol: Sn # 90
    coordinates: [  0.648501289785728,  0.481861976654749,  0.303869038939626 ]
    mass: 118.710000
    reduced_to: 89
  - symbol: Sn # 91
    coordinates: [  0.148501289785728,  0.981861976654749,  0.303869038939626 ]
    mass: 118.710000
    reduced_to: 89
  - symbol: Sn # 92
    coordinates: [  0.648501289785728,  0.981861976654749,  0.303869038939626 ]
    mass: 118.710000
    reduced_to: 89
  - symbol: Sn # 93
    coordinates: [  0.148501289785728,  0.481861976654749,  0.803869038939626 ]
    mass: 118.710000
    reduced_to: 89
  - symbol: Sn # 94
    coordinates: [  0.648501289785728,  0.481861976654749,  0.803869038939626 ]
    mass: 118.710000
    reduced_to: 89
  - symbol: Sn # 95
    coordinates: [  0.148501289785728,  0.981861976654749,  0.803869038939626 ]
    mass: 118.710000
    reduced_to: 89
  - symbol: Sn # 96
    coordinates: [  0.648501289785728,  0.981861976654749,  0.803869038939626 ]
    mass: 118.710000
    reduced_to: 89

displacements:
- atom:    1
  displacement:
    [   0.0100000000000000,  0.0000000000000000,  0.0000000000000000 ]
  forces:
  - [  -0.0132464766502380,  0.0029455805197358, -0.0150083936750889 ]
  - [   0.0063536083325744,  0.0029453760944307, -0.0150709198787808 ]
  - [   0.0042855273932219,  0.0029487418942153, -0.0150718819350004 ]
  - [   0.0042896904051304,  0.0029492753092200, -0.0150723913684487 ]
  - [   0.0042953370139003,  0.0029459008947015, -0.0150707736611366 ]
  - [   0.0042940108105540,  0.0029460825026035, -0.0150712849572301 ]
  - [   0.0042954599484801,  0.0029503642581403, -0.0150716081261635 ]
  - [   0.0042940266430378,  0.0029501887038350, -0.0150719638913870 ]
  - [  -0.0016586201963946,  0.0008948336471803,  0.0116156348958611 ]
  - [  -0.0017396692419425,  0.0008956780657172,  0.0116165680810809 ]
  - [  -0.0017116769449785,  0.0008927488815971,  0.0116152465343475 ]
  - [  -0.0016881548799574,  0.0008933819481172,  0.0116168297827244 ]
  - [  -0.0028135357424617,  0.0008953621727414,  0.0116347353905439 ]
  - [   0.0002187973295804,  0.0008957966929302,  0.0116151655092835 ]
  - [  -0.0017087197629735,  0.0008928502211347,  0.0116158854216337 ]
  - [  -0.0016931158024818,  0.0008922071428970,  0.0116166584193707 ]
  - [   0.0004997108480893,  0.0000227195851039,  0.0019841063767672 ]
  - [   0.0005341797950678,  0.0000438324495917,  0.0066372789442539 ]
  - [  -0.0024668830446899,  0.0000366784079233,  0.0042945565655828 ]
  - [  -0.0024672816507518,  0.0000345407170244,  0.0042786113917828 ]
  - [  -0.0024671223945916,  0.0000333720672643,  0.0043124514631927 ]
  - [  -0.0024693158920854,  0.0000337434321409,  0.0042681018821895 ]
  - [  -0.0024674837477505,  0.0000352963106707,  0.0042980671860278 ]
  - [  -0.0024696765467525,  0.0000347488094121,  0.0042837290093303 ]
  - [   0.0032053200993687,  0.0116332061588764,  0.0091473646461964 ]
  - [   0.0029554367065430,  0.0116312522441149,  0.0091466903686523 ]
  - [   0.0032072111498564,  0.0116264391690493,  0.0091479159891605 ]
  - [   0.0029551915358752,  0.0116282003000379,  0.0091472668573260 ]
  - [   0.0030921669676900,  0.0116291753947735,  0.0091459620743990 ]
  - [   0.0030549315270036,  0.0116289295256138,  0.0091455793008208 ]
  - [   0.0030915746465325,  0.0116302855312824,  0.0091462470591068 ]
  - [   0.0030550200026482,  0.0116301123052835,  0.0091463988646865 ]
  - [   0.0023929718881845,  0.0026208413764834, -0.0215528905391693 ]
  - [   0.0017965335864574,  0.0025977778714150, -0.0215525515377522 ]
  - [   0.0023944019339979,  0.0025729001499712, -0.0215531587600708 ]
  - [   0.0017957144882530,  0.0025989450514317, -0.0215529240667820 ]
  - [   0.0019990338478237,  0.0025966961402446, -0.0215521343052387 ]
  - [   0.0020081172697246,  0.0025964002124965, -0.0215503126382828 ]
  - [   0.0019991938024759,  0.0025990966241807, -0.0215519890189171 ]
  - [   0.0020078173838556,  0.0025986908003688, -0.0215499456971884 ]
  - [  -0.0018732947064564, -0.0132425371557474, -0.0044990768656135 ]
  - [  -0.0018732474418357, -0.0131447836756706, -0.0043803532607853 ]
  - [  -0.0018739373190328, -0.0131449280306697, -0.0044992165639997 ]
  - [  -0.0018740238156170, -0.0132426507771015, -0.0043800333514810 ]
  - [  -0.0018730410374701, -0.0132406959310174, -0.0043839979916811 ]
  - [  -0.0018734044861048, -0.0131423315033317, -0.0044985595159233 ]
  - [  -0.0018722615204751, -0.0131458239629865, -0.0043837199918926 ]
  - [  -0.0018728884169832, -0.0132430270314217, -0.0044985944405198 ]
  - [   0.0013142959214747, -0.0037691621109843,  0.0206509754061699 ]
  - [   0.0013107074191794, -0.0039007999002934,  0.0209195725619793 ]
  - [   0.0013105259276927, -0.0039026224985719,  0.0206553693860769 ]
  - [   0.0013091453583911, -0.0037664123810828,  0.0209158752113581 ]
  - [   0.0009957693982869, -0.0038391412235796,  0.0207614526152611 ]
  - [   0.0009961934993044, -0.0038305153138936,  0.0208116676658392 ]
  - [   0.0009952237596735, -0.0038326967041939,  0.0207613017410040 ]
  - [   0.0009957813890651, -0.0038401165511459,  0.0208099037408829 ]
  - [  -0.0030966685153544, -0.0025535654276609,  0.0019258297979832 ]
  - [  -0.0031356096733361, -0.0025538958143443,  0.0019258710090071 ]
  - [  -0.0030968699138612, -0.0025526199024171,  0.0019249515607953 ]
  - [  -0.0031340767163783, -0.0025528213009238,  0.0019247944001108 ]
  - [  -0.0029884830582887, -0.0025544124655426,  0.0019231063779444 ]
  - [  -0.0032341950573027, -0.0025521256029606,  0.0019238621462137 ]
  - [  -0.0029876295011491, -0.0025531300343573,  0.0019231347832829 ]
  - [  -0.0032345447689295, -0.0025538215413690,  0.0019235783256590 ]
  - [  -0.0009723525145091,  0.0186094306409359,  0.0106578394770622 ]
  - [  -0.0009687257115729,  0.0186074040830135,  0.0092914309352636 ]
  - [  -0.0008300433401018,  0.0186088792979717,  0.0099752973765135 ]
  - [  -0.0008283107890747,  0.0186088550835848,  0.0099761551246047 ]
  - [  -0.0009807251626626,  0.0186101738363504,  0.0093082096427679 ]
  - [  -0.0009776458609849,  0.0186058208346367,  0.0106384437531233 ]
  - [  -0.0008286100928672,  0.0186085328459740,  0.0099782384932041 ]
  - [  -0.0008268351084553,  0.0186080448329449,  0.0099759083241224 ]
  - [  -0.0006142195197754, -0.0054485807195306, -0.0098655708134174 ]
  - [  -0.0006135421572253, -0.0056178271770477, -0.0101383896544576 ]
  - [  -0.0006192321889102, -0.0056332359090447, -0.0098708700388670 ]
  - [  -0.0006170630222186, -0.0054522701539099, -0.0101345330476761 ]
  - [  -0.0009253092575818, -0.0055422093719244, -0.0099766002967954 ]
  - [  -0.0009297241922468, -0.0055326139554381, -0.0100284796208143 ]
  - [  -0.0009256221237592, -0.0055353948846459, -0.0099772270768881 ]
  - [  -0.0009292941540480, -0.0055435700342059, -0.0100276861339808 ]
  - [  -0.0008545634336770, -0.0162599422037601, -0.0015648922417313 ]
  - [   0.0020548955071718, -0.0162599906325340, -0.0015615664888173 ]
  - [   0.0001901481300592, -0.0162595435976982, -0.0015529034426436 ]
  - [   0.0002059980761260, -0.0162596888840199, -0.0015535262646154 ]
  - [   0.0002409112639725, -0.0162610150873661, -0.0015505924820900 ]
  - [   0.0001577085349709, -0.0162608548998833, -0.0015530925011262 ]
  - [   0.0001887690741569, -0.0162589643150568, -0.0015507818898186 ]
  - [   0.0002063892316073, -0.0162593349814415, -0.0015521161258221 ]
  - [   0.0030715181492269,  0.0046776919625700, -0.0029200310818851 ]
  - [   0.0032030539587140,  0.0046581858769059, -0.0074184341356158 ]
  - [   0.0003475751727819,  0.0046694823540747, -0.0051277060993016 ]
  - [   0.0003479351289570,  0.0046665067784488, -0.0051109101623297 ]
  - [   0.0003485684283078,  0.0046673286706209, -0.0051427395083010 ]
  - [   0.0003466855268925,  0.0046681049279869, -0.0050947768613696 ]
  - [   0.0003481288440526,  0.0046683540567756, -0.0051252399571240 ]
  - [   0.0003468142822385,  0.0046686269342899, -0.0051124738529325 ]
- atom:    1
  displacement:
    [  -0.0100000000000000,  0.0000000000000000,  0.0000000000000000 ]
  forces:
  - [   0.0218409448862076,  0.0029357434250414, -0.0151382051408291 ]
  - [   0.0022349492646754,  0.0029456294141710, -0.0150721967220306 ]
  - [   0.0043030334636569,  0.0029495283961296, -0.0150713408365846 ]
  - [   0.0042977076955140,  0.0029494338668883, -0.0150727760046721 ]
  - [   0.0042933155782521,  0.0029457290656865, -0.0150712579488754 ]
  - [   0.0042960010468960,  0.0029461719095707, -0.0150711638852954 ]
  - [   0.0042934995144606,  0.0029502846300602, -0.0150716779753566 ]
  - [   0.0042959512211382,  0.0029501847457141, -0.0150722181424499 ]
  - [  -0.0017450426239520,  0.0008947962196544,  0.0116163203492761 ]
  - [  -0.0016555674374104,  0.0008954192744568,  0.0116148861125112 ]
  - [  -0.0016928766854107,  0.0008926966111176,  0.0116151748225093 ]
  - [  -0.0017073181224987,  0.0008931918418966,  0.0116168530657887 ]
  - [  -0.0005890355096199,  0.0008955877274275,  0.0116402627900243 ]
  - [  -0.0036211402621120,  0.0008951285271905,  0.0116513334214687 ]
  - [  -0.0016931809950620,  0.0008928165188991,  0.0116156339645386 ]
  - [  -0.0017084195278585,  0.0008925166330300,  0.0116164311766624 ]
  - [  -0.0056272819638252,  0.0000444343168056,  0.0067387884482741 ]
  - [  -0.0052843196317554,  0.0000239139772020,  0.0020778279285878 ]
  - [  -0.0024661296047270,  0.0000336372613674,  0.0042781252413988 ]
  - [  -0.0024680327624083,  0.0000372765207430,  0.0042939609847963 ]
  - [  -0.0024670311249793,  0.0000336990487995,  0.0042688725516200 ]
  - [  -0.0024694155436009,  0.0000335782387992,  0.0043114023283124 ]
  - [  -0.0024674246087670,  0.0000349695183104,  0.0042847739532590 ]
  - [  -0.0024696371983737,  0.0000349477777490,  0.0042968504130840 ]
  - [   0.0029439623467624,  0.0116317151114345,  0.0091522019356489 ]
  - [   0.0031941218767315,  0.0116289649158716,  0.0091481544077396 ]
  - [   0.0029422857332975,  0.0116287283599377,  0.0091524235904217 ]
  - [   0.0031949563417584,  0.0116305137053132,  0.0091484161093831 ]
  - [   0.0030553659889847,  0.0116307195276022,  0.0091447848826647 ]
  - [   0.0030916731338948,  0.0116300974041224,  0.0091446908190846 ]
  - [   0.0030554628465325,  0.0116286100819707,  0.0091454796493053 ]
  - [   0.0030907231848687,  0.0116289090365171,  0.0091449860483408 ]
  - [   0.0016143342945725,  0.0026394545566291, -0.0215527601540089 ]
  - [   0.0022087511606514,  0.0026025641709566, -0.0215518008917570 ]
  - [   0.0016121275257319,  0.0025563451927155, -0.0215530656278133 ]
  - [   0.0022093001753092,  0.0025939303450286, -0.0215521901845932 ]
  - [   0.0020054581109434,  0.0025964404921979, -0.0215518474578857 ]
  - [   0.0020018613431603,  0.0025964626111090, -0.0215502679347992 ]
  - [   0.0020047216676176,  0.0025992691516876, -0.0215520001947880 ]
  - [   0.0020021328236908,  0.0025986039545387, -0.0215496774762869 ]
  - [  -0.0018730290466920, -0.0131435934454203, -0.0043794233351946 ]
  - [  -0.0018736493075266, -0.0132409967482090, -0.0044975299388170 ]
  - [  -0.0018738883081824, -0.0132442442700267, -0.0043784496374428 ]
  - [  -0.0018742685206234, -0.0131461471319199, -0.0044978111982346 ]
  - [  -0.0018733333563432, -0.0131421433761716, -0.0044996594078839 ]
  - [  -0.0018727983115241, -0.0132388090714812, -0.0043868888169527 ]
  - [  -0.0018732219468802, -0.0132444212213159, -0.0044996389187872 ]
  - [  -0.0018721265951172, -0.0131457513198256, -0.0043864743784070 ]
  - [   0.0006828861660324, -0.0038663353770971,  0.0209182761609554 ]
  - [   0.0006754126516171, -0.0037372149527073,  0.0206487625837326 ]
  - [   0.0006832043291070, -0.0037995767779648,  0.0209153592586517 ]
  - [   0.0006793636130169, -0.0039329631254077,  0.0206538550555706 ]
  - [   0.0009956290014088, -0.0038308128714561,  0.0208105295896530 ]
  - [   0.0009955880232155, -0.0038386550731957,  0.0207624025642872 ]
  - [   0.0009955125860870, -0.0038407512474805,  0.0208087190985680 ]
  - [   0.0009959802264348, -0.0038321176543832,  0.0207622721791267 ]
  - [  -0.0031337044201791, -0.0025529291015118,  0.0019267136231065 ]
  - [  -0.0030978617724031, -0.0025531956925988,  0.0019263026770204 ]
  - [  -0.0031321884598583, -0.0025534206070006,  0.0019254456274211 ]
  - [  -0.0030986596830189, -0.0025530320126563,  0.0019252530764788 ]
  - [  -0.0032456505578011, -0.0025510732084513,  0.0019171535968781 ]
  - [  -0.0029966728761792, -0.0025558881461620,  0.0019223901908845 ]
  - [  -0.0032472065649927, -0.0025560723152012,  0.0019167263526469 ]
  - [  -0.0029966454021633, -0.0025496724992990,  0.0019220146350563 ]
  - [  -0.0006802499992773,  0.0186076797544956,  0.0092891147360206 ]
  - [  -0.0006925126072019,  0.0186092369258404,  0.0106580443680286 ]
  - [  -0.0008299837936647,  0.0186089612543583,  0.0099749937653542 ]
  - [  -0.0008280121255666,  0.0186089724302292,  0.0099763264879584 ]