8
Lattice="4.767647625537487 -0.0014487052656320407 0.002421343141881986 0.0015938408615920794 5.025562505589216 0.0024127388795190945 -0.002651791356746388 -0.0038474770206556237 6.049309127237531" Properties=species:S:1:pos:R:3:forces:R:3 structure_index=0 total_energy=-23.559167861938477 stress="-0.04064846783876419 0.00030581519240513444 0.0010371929965913296 0.00030577866709791124 -0.03511203080415726 0.0010240513365715742 0.0010372031247243285 0.001024278812110424 -0.01691414974629879" pbc="T T T"
Li       2.52504077       0.94257107       3.63498721       0.00080592       0.04439398      -0.00429081
Li       2.52609331       0.94237824       0.62787354       0.00126660       0.04801400       0.00270629
Li       0.14441053       2.69072259       0.60950251      -0.00044303      -0.04760961      -0.00495371
Li       0.14297846       2.68646607       3.65013031      -0.00025014      -0.04326911       0.00545442
Ga       2.52631733       3.41314793       5.15620532      -0.00096442       0.01974338       0.00001957
Ga       0.14227386       0.21623053       2.12962071      -0.00009871      -0.01980515      -0.00078514
Sn       2.52795333       3.43132285       2.13169002      -0.00139505       0.01082483       0.00120186
Sn       0.14031883       0.19835820       5.15363656       0.00107883      -0.01229224       0.00064754
10
Lattice="3.015011336830411 0.001740312772065461 -0.0008458958194276342 -0.0050696445685804005 7.907556100048039 -5.576904197616461e-05 0.0019613589338264535 -0.0001847976423439491 7.9040382568962695" Properties=species:S:1:pos:R:3:forces:R:3 structure_index=1 total_energy=-28.908401489257812 stress="0.02738797850906849 -0.0010358699364587665 -0.000431579741416499 -0.0010355835547670722 -0.011157927103340626 -4.973938121111132e-05 -0.0004314974939916283 -4.991556124878116e-05 -0.012036243453621864" pbc="T T T"
Li       1.27207287       0.67493600       4.44017370      -0.00054260      -0.02845096       0.02895630
Li       1.26924372       3.49321903       1.62332480       0.00002380       0.02838317      -0.02762959
Li       1.26889634       4.63207411       5.57464596       0.00083944      -0.03193751      -0.02806314
Li       1.26681258       7.44453174       0.49122192      -0.00036034       0.03118310       0.02733386
Ga       2.77882604       1.15688455       2.10380581      -0.00049840       0.00949793       0.00758277
Ga       2.77540439       5.11052103       0.00821772      -0.00032647       0.00685252      -0.01006763
Ga       2.77565175       6.96803038       6.05559461      -0.00000503      -0.00685901       0.01075777
Ga       2.77723558       3.01410560       3.96107310       0.00045992      -0.00939899      -0.00877804
Sn       2.77494501       6.03875382       3.03158148       0.00059866      -0.00032373       0.00069971
Sn       2.77919908       2.08419333       6.98427043      -0.00018895       0.00105342      -0.00079204
20
Lattice="7.714486249720839 -0.2122795170577007 -1.9669673719042775 -3.7047349190584336 6.981157795600413 -3.356027848890187 0.06420546481324917 -0.08149683149504221 8.880224509581815" Properties=species:S:1:pos:R:3:forces:R:3 structure_index=2 total_energy=-65.7448501586914 stress="0.007471098098903894 0.00029439260833896697 0.001435492536984384 0.00029432523297145963 0.006146857514977455 0.0015245634131133556 0.0014353400329127908 0.0015246091643348336 0.008308090269565582" pbc="T T T"
Li       0.47185083       0.61051844       4.54502989       0.00233763       0.03746081      -0.01069940
Li      -1.14888509       5.60694769      -3.14443286       0.00730597      -0.00224036      -0.01156651
Li       3.34843394       1.51536028       5.71408999      -0.00915832       0.00333893       0.00759007
Li       1.72750246       6.51636876      -1.98294588      -0.00485350      -0.04006449       0.01078053
Ga       3.60533963       4.82800896       1.41982074       0.00258536       0.02906110       0.00950848
Ga       5.99868061       3.01130395      -3.44549975       0.01875257       0.04406688       0.00830550
Ga       3.90976052       3.89779326       4.03987832      -0.01906629      -0.04287959      -0.00760543
Ga       6.29935631       2.08193519      -0.82490733      -0.00011839      -0.02966286      -0.00798173
Ga       2.95088113       0.06840557       2.96256103      -0.00004132       0.00120661      -0.00148300
Sn       3.92542620       4.24450364      -1.58970616       0.02406845       0.01757406      -0.00413709
Sn       1.13111443       3.52086419       5.71942263       0.00010858       0.00032300       0.00181668
Sn      -3.45291033       6.84811251      -1.72528381      -0.00803646      -0.02161872      -0.02442866
Sn       5.65076193       0.27506525       4.28710622       0.00682247       0.02135513       0.02492586
Sn       0.88862770       0.84480909       7.55554452       0.01293160       0.02687607       0.00090151
Sn       5.98378993       2.66724704       2.18423241      -0.02104104      -0.01781048       0.00648932
Sn       0.64629995       4.32898955      -0.05067329       0.00444129       0.01687253       0.02976966
Sn       1.54731391       2.79030718       2.61068750      -0.00471482      -0.01405562      -0.02829879
Sn      -1.29342863       5.54883399       2.30714905      -0.02204349       0.01004172       0.01059968
Sn       3.48646179       1.57486919       0.26055597       0.02252368      -0.01133011      -0.01347672
Sn       1.37184193       6.19765655       3.88644483      -0.01280399      -0.02851465      -0.00100998
12
Lattice="3.9404092206031347 -0.0019786203346144923 1.0512862982179094 1.219700896484942 6.711369000870888 3.3632618541378445 0.015141030992271378 -0.0653859751083514 7.869241003214001" Properties=species:S:1:pos:R:3:forces:R:3 structure_index=3 total_energy=-33.68368148803711 stress="-0.004424213897436857 0.0005632712272927165 0.0005356817273423076 0.0005630954401567578 0.021596748381853104 0.01652856543660164 0.000535367988049984 0.016528848558664322 0.029975736513733864" pbc="T T T"
Li       2.90509463       1.95405282       5.51589555      -0.00501910       0.00586677       0.01887456
Li       3.51112591       5.24824349      11.17419367       0.00310085      -0.02893099      -0.01279681
Li       1.39758006       0.77661855       3.24488806       0.00738335       0.01037070      -0.01967513
Li       4.25536355       5.86198778       8.37781832      -0.00164425      -0.01754609       0.00799786
Li       2.15282625       1.25062123       8.33796257      -0.00148049       0.01214548       0.00861707
Ga       0.61847249       0.10279619       6.17055799      -0.00226392       0.02699568       0.01260529
Ga       2.79007002       4.85967375       5.95381966      -0.00323059      -0.02575392       0.01780920
Ga       3.62717076       2.44917629       2.80630305      -0.00115032       0.00545993      -0.00081931
Ga       1.25180150       3.59199208       3.80237574       0.00928281      -0.01603052      -0.03211061
Ga       5.04333058       6.42227284       5.42501515      -0.00794006       0.00978650       0.01692634
Ga       1.97456277       4.14034764       9.01630074       0.00542245      -0.01647115      -0.02003263
Sn       4.42096528       3.03301471       7.75196162      -0.00246075       0.03410766       0.00260422
8
Lattice="4.585788553938497 0.0034390731802185653 -0.0027292048918028905 -0.006254786919388629 5.222951064530873 -3.152595711972514 0.005040852931920524 -0.028266211080807575 5.950113028535641" Properties=species:S:1:pos:R:3:forces:R:3 structure_index=4 total_energy=-22.961212158203125 stress="0.02325274795293808 0.0009213293669745326 0.003612448228523135 0.0009212717995978892 0.052023664116859436 -0.01739322580397129 0.00361255113966763 -0.017393358051776886 0.02025643363595009" pbc="T T T"
Li       3.41077649       5.04887393      -0.11618492      -0.00041270      -0.02953999      -0.00689547
Li       3.41316829       5.07158365       2.71366136       0.00005273      -0.03793694      -0.01481972
Li       1.12149640       3.30968992       2.85445919      -0.00020666       0.03628751       0.01876491
Ga       3.41589069       2.41515487       4.34870074       0.00054415      -0.03011931      -0.01904177
Ga       1.11873811       3.33577282      -0.10864343       0.00032552       0.01735032       0.00868814
Ga       1.12445079       0.75381905       4.44382344      -0.00003890       0.02071345       0.00351333
Ga       3.41368382       2.55033130       1.41337865       0.00006011      -0.00683668       0.00420088
Sn       1.12223364       0.70071169       1.44382139      -0.00032428       0.03008162       0.00558967
10
Lattice="2.82652192521206 -0.00018437978248956496 -0.0005768297971648345 0.00018410608606825066 2.82652332852624 -0.00012846534424737057 0.004249399251007758 0.0009803241843600536 21.16055394937802" Properties=species:S:1:pos:R:3:forces:R:3 structure_index=5 total_energy=-28.35544204711914 stress="0.042008768767118454 3.549964731064392e-07 -8.53806432132842e-06 3.3601170912334055e-07 0.04205213859677315 -1.9682988749991637e-07 -8.708155291969888e-06 -2.1479624745524006e-09 0.011250973679125309" pbc="T T T"
Li       0.10759996       1.66629228       7.86251539       0.00003492      -0.00001926      -0.03552838
Li       0.10841303       1.66645700      11.98483218       0.00001132      -0.00000188      -0.00926246
Li       0.11030241       1.66673974      20.15571452       0.00000424       0.00001373       0.00917670
Li       0.10934328       1.66660132      16.07011805       0.00000478      -0.00000158       0.00012124
Li       0.10697520       1.66597723       3.11765023      -0.00005654       0.00000774       0.03547587
Ga       1.51971816       0.25249920       1.05889866      -0.00003988       0.00002331       0.02254541
Ga       1.52113516       0.25302534       9.92074376       0.00005182      -0.00000650      -0.02255300
Ga       1.52204480       0.25317844      14.02622551       0.00000078      -0.00000392      -0.00501834
Ga       1.52298634       0.25331392      18.11368737       0.00000844       0.00000327       0.00510687
Sn       1.52047426       0.25279394       5.48986954      -0.00001985      -0.00001486      -0.00006392
10
Lattice="4.132928057163013 0.0028988593926024173 -0.7601761495835392 -0.1429477683458855 4.1304727203492115 -0.7613452980213679 0.05005359392044485 0.06110685813996252 11.86887966647437" Properties=species:S:1:pos:R:3:forces:R:3 structure_index=6 total_energy=-29.6368465423584 stress="-0.030647488310933113 0.00017753790598362684 0.0013396377908065915 0.0001774900738382712 -0.030449049547314644 0.0016602383693680167 0.0013395921560004354 0.001660235458984971 -0.022994864732027054" pbc="T T T"
Li       0.58787496       0.80564261       7.10894469       0.00702539       0.00943842       0.04401668
Li       3.78142921       1.97056825       1.27296997       0.00412736       0.00445261       0.02023350
Li       2.15007080       2.41836619       4.01604733      -0.00815930      -0.00672676      -0.04331619
Li       3.33796690       3.65030067      -1.13302117       0.00021700      -0.00066169       0.00046818
Li       0.95022568       3.32286027       9.09189040      -0.00468325      -0.00401027      -0.02099019
Ga       3.09825586       1.26933753       9.15046126      -0.00706243      -0.00627188      -0.04105788
Ga       1.63284297       4.02396213       1.21371328       0.00885746       0.00683725       0.04169616
Sn       2.67484271       2.96892276       6.85212417       0.00428949       0.00265560       0.01708299
Sn       0.06256310       0.25660962       4.27341872      -0.00445272      -0.00465984      -0.01796091
Sn       1.34306580       1.58366321      -0.37187616      -0.00015902      -0.00105345      -0.00017234
8
Lattice="4.5650157811504295 0.0016952711750202426 0.001306017255392109 -2.2805544253104384 3.957510457687625 -0.004542108803177197 0.00263266972223978 0.0013195164954086722 8.783714159006596" Properties=species:S:1:pos:R:3:forces:R:3 structure_index=7 total_energy=-23.253604888916016 stress="0.011838848702609539 0.00037118184263817966 -0.0007264704909175634 0.0003711396420840174 0.0188845694065094 0.0032056549098342657 -0.000726480851881206 0.003205748274922371 -0.047469206154346466" pbc="T T T"
Li      -0.23165899       2.88447663       7.83617371       0.00095019       0.00023099       0.02119717
Li      -0.23050575       2.88198334       2.01588598      -0.00081152      -0.00021134       0.01111736
Li       4.33231910       0.24834875       6.66124409      -0.00022942      -0.00029188      -0.02170447
Li       4.33111359       0.24781645       3.69708185      -0.00063644       0.00148204      -0.00959593
Ga       2.05097952       1.56568571       8.55099960       0.00069819       0.00000073      -0.00247698
Ga       2.05027626       1.56707175       5.94744269      -0.00046303      -0.00054640       0.00129443
Sn      -0.23197624       2.88541759       4.92889438       0.00046812      -0.00018165       0.03934944
Sn       4.33100617       0.24575018       0.78487232       0.00002391      -0.00048250      -0.03918102
8
Lattice="5.737552328677556 -0.036080215926777945 -2.7342521855928617 -2.055561060764899 5.146764958332556 -0.31519383949640356 -0.20101782395726425 0.14727298112340168 6.264215379395583" Properties=species:S:1:pos:R:3:forces:R:3 structure_index=8 total_energy=-25.9561824798584 stress="-0.009314099326729774 -0.0022857303265482187 0.03376531973481178 -0.0022858264856040478 0.019008280709385872 -0.01396237500011921 0.03376522660255432 -0.013962248340249062 -0.001697481027804315" pbc="T T T"
Li      -0.74247446       1.93505460       3.51018193       0.00647707      -0.02445118       0.01880852
Li       2.18289952       1.84334193      -1.03730568      -0.00513478       0.02580795      -0.01590558
Ga      -1.79517305       4.54909723       4.95886856      -0.00124514       0.03992147      -0.03130501
Ga       0.98700281       4.52236882       3.47946551      -0.00000838      -0.03800131       0.02800547
Sn      -1.67842859       4.40374463       1.94913444      -0.00960621       0.00107619      -0.04248998
Sn      -0.67704593       1.72447745       0.31953907      -0.01289165       0.00946000       0.00476921
Sn       1.07241320       4.52384872       0.22346609       0.00541114      -0.00149089       0.03762247
Sn       2.11542436       2.05673197       2.15419347       0.01699793      -0.01232223       0.00049487
16
Lattice="4.556317664554256 0.0061623064819237355 -0.019890582846036942 -2.263429803715496 3.946416631332733 0.014385266176411374 -0.061256195033210385 0.0030973051587073245 17.073974723372665" Properties=species:S:1:pos:R:3:forces:R:3 structure_index=9 total_energy=-45.85566711425781 stress="0.001514351344667375 -0.0006029762444086373 0.000802908674813807 -0.0006031781667843461 0.0009922964964061975 -0.0003371302445884794 0.0008024713606573641 -0.0003373961371835321 0.00054957065731287" pbc="T T T"
Li       0.88885966       1.98613519       0.74891323       0.00673077      -0.00144820       0.02674289
Li      -1.40940375       3.30380739       4.46662731      -0.00502069       0.00073884      -0.00448487
Li      -1.42512904       3.30257188       9.98905833       0.00037865       0.00064008       0.01600307
Li      -1.44139766       3.30302606      15.73457156       0.00074483      -0.00077509      -0.03515449
Li       0.84586943       1.98868928      11.96873860      -0.00049227       0.00034220      -0.01811560
Li       3.12042080       0.67545332      10.96158444       0.00026481       0.00004691      -0.01577270
Li       0.85585730       1.99201318       6.36017199      -0.00221396       0.00039950       0.02227536
Ga       3.11425949       0.67579533      13.85872695       0.00116502      -0.00076020       0.02142313
Ga       3.13144845       0.67882736       5.34884553      -0.00298343      -0.00140195      -0.03443725
Ga       3.12715593       0.67623257       7.97094106      -0.00041574       0.00019709      -0.00849506
Ga      -1.38557252       3.29918666       1.52007877       0.00298453      -0.00031056      -0.00404845
Ga       3.15215129       0.67357144       2.62114348       0.00215682      -0.00114663      -0.01227405
Ga       0.86986289       1.98833165       3.68402313      -0.00544348       0.00316423       0.01799029
Sn       3.10213078       0.67601262      16.67413131       0.00090778       0.00053719       0.03981205
Sn       0.85091277       1.98935766       9.13434807      -0.00099378      -0.00029922      -0.00696931
Sn      -1.42949196       3.30231850      12.83046924       0.00223006       0.00007578      -0.00449497
8
Lattice="4.829018221827711 0.002870608871635656 -0.005490312061634395 -0.0031474264857995547 5.207968976834342 -0.016086902711765536 0.006448179857343 0.018172548762888176 5.976673254044091" Properties=species:S:1:pos:R:3:forces:R:3 structure_index=10 total_energy=-23.44803237915039 stress="-0.033446624875068665 -0.0005921600386500359 -0.001121058943681419 -0.0005921588162891567 0.04893147572875023 -0.0026773735880851746 -0.00112095195800066 -0.0026773649733513594 -0.006803619675338268" pbc="T T T"
Li       3.07524698       3.34260638       3.82984656      -0.00032838       0.05171940       0.00129042
Li       0.65831611       1.65680163       0.85079907      -0.00030047      -0.04939539      -0.00011616
Li       3.07514242       0.71893801       2.35208123      -0.00016677       0.04401355      -0.00085698
Li       0.66154650       4.29162132       5.33077852      -0.00023052      -0.04620414       0.00056833
Ga       3.07821047       0.76004923       5.34977214       0.00019458       0.00445631      -0.00636564
Ga       0.65837380       4.25043823       2.35178749      -0.00030359      -0.00557614      -0.00467957
Sn       3.07139902       3.40068022       0.83796000       0.00132076       0.01478015       0.00469972
Sn       0.66168495       1.60002375       3.83487248      -0.00018561      -0.01379376       0.00545989
4
Lattice="4.275307358735282 0.00030408675379170366 -0.0009878315591270181 -0.00073531686041882 4.275286972523428 -5.685003599311624e-05 0.0007061168468237262 4.0661309587348246e-05 4.354340437473745" Properties=species:S:1:pos:R:3:forces:R:3 structure_index=11 total_energy=-12.15864086151123 stress="-0.06590423732995987 -0.0012938216095790267 -0.001492920215241611 -0.001293820678256452 -0.06605859100818634 -8.82912427186966e-05 -0.0014929954195395112 -8.840677764965221e-05 -0.07698122411966324" pbc="T T T"
Li       2.63611324       1.52085134       2.28554740      -0.00040168       0.00030530      -0.00097940
Ga       2.63529983       3.65909780       0.10766203      -0.00029831      -0.00088607       0.00096848
Ga       0.49782466       1.52055411       0.10781656       0.00031925       0.00057826       0.00187500
Sn       0.49791470       3.65823924       2.28567017       0.00038074       0.00000252      -0.00186408
4
Lattice="4.4467747215434965 0.00014940360965857535 -0.0001391507232919233 -0.00010620754704853395 4.0551442957993915 -0.0008340079018507131 0.00016776086220753888 0.0007379425684299347 4.055126310912633" Properties=species:S:1:pos:R:3:forces:R:3 structure_index=12 total_energy=-11.800277709960938 stress="0.06973327696323395 0.00010187798761762679 0.00013431791740003973 0.00010194716742262244 0.006701125763356686 -0.0009033986134454608 0.00013433322601485997 -0.0009033750975504518 0.006608318071812391" pbc="T T T"
Li       0.90149361       3.11064294       1.91615329      -0.00041357       0.00007943      -0.00031806
Li       0.90182399       1.08345683       3.94399312      -0.00075859      -0.00004703      -0.00003884
Ga       3.12505762       3.11100603       3.94346789      -0.00004467       0.00054477      -0.00034098
Sn       3.12462937       1.08322069       1.91618514       0.00121684      -0.00057717       0.00069787
11
Lattice="5.010015541266168 0.1679960436500586 -0.9841613910667265 -1.6700885321947863 3.570093592851759 -4.627110167994819e-06 0.0029291526292000054 0.0018573432101967574 10.63022625713883" Properties=species:S:1:pos:R:3:forces:R:3 structure_index=13 total_energy=-31.478984832763672 stress="-0.001776166376657784 -0.00745003717020154 -0.0009360004332847893 -0.007450303062796593 0.010915935039520264 0.0006432465161196887 -0.0009362306445837021 0.0006433554226532578 0.01621122844517231" pbc="T T T"
Li       3.33528967       1.59278605       4.18426987       0.02085218       0.00968987       0.00326237
Li      -0.06257890       2.17906778       7.98350756      -0.01086063      -0.00515239       0.00978860
Li       4.10330930       1.95158119       0.15707088       0.00131298       0.00079367      -0.00238122
Li       1.15257123       0.57196627       5.90401664      -0.02048996      -0.00997467      -0.00357153
Li       0.38409883       0.21221702       9.93118966      -0.00135773      -0.00049919       0.00249305
Li       2.88018954       3.55531482       2.10470003       0.01111693       0.00519694      -0.00977430
Ga       1.40711822       2.86599769      -0.27092323       0.00027906       0.00022601      -0.00014849
Ga       1.88053091       0.91184216       1.58753043      -0.00093850      -0.00011958      -0.00490057
Ga       2.60700931       1.25216999       8.50078908       0.00096028       0.00039343       0.00448344
Sn       2.23372457       3.25324154       6.43327009       0.00724881       0.00348608       0.01165531
Sn       0.58421564       2.48141655       3.65473069      -0.00812341      -0.00404018      -0.01090666
10
Lattice="3.0107624681010186 -0.0018674368073958423 0.0013498613460076509 0.004758200172948646 7.91498259427089 0.0006110217820467995 -0.0035843872019630956 -0.0005979224038451734 7.909862430086925" Properties=species:S:1:pos:R:3:forces:R:3 structure_index=14 total_energy=-28.909330368041992 stress="-0.02216794528067112 -0.0005873284535482526 -0.000428314640885219 -0.0005870588938705623 0.014205426909029484 -8.237878500949591e-05 -0.00042817124631255865 -8.241678006015718e-05 0.013483291491866112" pbc="T T T"
Li       1.83198577       4.72445029       3.38647852      -0.00028324       0.02372081      -0.02300455
Li       1.82955046       0.76642737       2.25924543       0.00039080       0.02368535       0.02372196
Li       1.83109264       5.85255135       7.34392875      -0.00051635      -0.02419841      -0.02539581
Li       1.82872802       1.89623964       6.21172205       0.00006437      -0.02629601       0.02543229
Ga       0.32814903       6.34149179       1.77180899       0.00009168       0.00605936      -0.00338454
Ga       0.32162479       0.28068035       7.82682038       0.00014536      -0.00463741       0.00425200
Ga       0.32545140       4.23810874       5.72752914      -0.00045222      -0.00359829      -0.00622483
Ga       0.32442510       2.38464629       3.87201347       0.00052156       0.00463089       0.00386713
Sn       0.32681596       3.30998908       0.84411408      -0.00009948       0.00027762       0.00075720
Sn       0.32717923       7.26755653       4.80062336       0.00013757       0.00035609      -0.00002082
4
Lattice="4.35176821825145 9.624385156992865e-05 -0.00029834299050537433 -9.142450220260152e-05 4.284934505771811 -0.0003222298686858562 0.0003060968282120177 0.0002896069573835975 4.284964482936898" Properties=species:S:1:pos:R:3:forces:R:3 structure_index=15 total_energy=-12.15861701965332 stress="0.03788067027926445 1.862700992205646e-05 6.170988490339369e-05 1.8660217392607592e-05 0.08038169145584106 -9.994941501645371e-05 6.176840543048456e-05 -9.997635061154142e-05 0.08060268312692642" pbc="T T T"
Li       2.26670382       1.27638829       1.46674448      -0.00011694       0.00042336      -0.00199334
Ga       0.09059477       3.41951058       1.46593035       0.00008085      -0.00054310      -0.00074030
Ga       0.09084812       1.27700354       3.60750221      -0.00005488      -0.00058880       0.00189421
Sn       2.26660670       3.41902930       3.60837040       0.00009098       0.00070854       0.00083945
8
Lattice="5.412255965283659 0.08368376045750552 -1.7680481826614458 -3.005757790872784 4.569705519259113 -1.5830947758823122 0.032799327279274704 -0.07277758523562186 5.693322118524062" Properties=species:S:1:pos:R:3:forces:R:3 structure_index=16 total_energy=-22.700693130493164 stress="-0.019986119121313095 -0.015187830664217472 -0.0025286416057497263 -0.015187613666057587 -0.02324427291750908 0.022322699427604675 -0.0025285067968070507 0.02232293412089348 -0.018464820459485054" pbc="T T T"
Li       4.38082487       0.96056963       1.79597804      -0.01487359       0.01127349       0.01764136
Li       0.14435093       3.14684095       1.93266754      -0.01017330       0.02165463       0.00714518
Li       1.46252934       1.15124169       0.10495341       0.01179503      -0.00966756      -0.01906571
Li      -0.11574922       3.33705117      -0.94393624       0.00302685       0.00201387       0.00270891
Li       2.69334742       3.53649414      -1.61156000       0.00661007      -0.02432420      -0.01110080
Ga       1.73918192       1.01609143       2.93232734      -0.01972270       0.00066811      -0.01424809
Sn       4.11379863       1.09676613      -1.02478203       0.03176637      -0.00153341       0.02305615
Sn       2.87103792       3.34432960       1.20578203      -0.00842875      -0.00008498      -0.00613702
16
Lattice="6.122226197138199 -0.02825180147743289 -0.0032251899166270597 0.0077797443029921755 6.122614096744995 -0.006577806630371651 0.0066547344756295 0.012172701336271987 8.53519123465831" Properties=species:S:1:pos:R:3:forces:R:3 structure_index=17 total_energy=-48.55985641479492 stress="0.008032448589801788 0.0013460114132612944 -0.0011089966865256429 0.0013459966285154223 0.008832152001559734 -0.0017725290963426232 -0.001108986441977322 -0.0017724657664075494 0.024308079853653908" pbc="T T T"
Li       1.24071946       3.13567625       4.06316157       0.02324373       0.02150551      -0.01004861
Li       1.24879823       3.14802541       8.33845321       0.01905204       0.01268474      -0.01964424
Li       4.30883852       3.11116193       4.04668278      -0.02824881       0.01567342       0.01905189
Li       1.23155223       0.07751271       4.05290949       0.01228936      -0.02628727       0.02192622
Li       4.31568914       0.08157458       8.35544709      -0.00410601      -0.00477805      -0.03443560
Li       2.79417063       4.67908044       1.90987056      -0.01861508      -0.01960989      -0.02123990
Ga       5.82400296       1.57332977       1.92153513       0.02408238       0.02456172       0.01149416
Ga       2.79577816       4.67827325       6.17600398      -0.00956874      -0.00235804       0.02222513
Ga       4.25575659       0.01280719       3.97083523      -0.02519603      -0.01720231       0.02342385
Ga       4.25927173       3.19963456       8.39450040      -0.00192866      -0.00778760      -0.00735191
Ga       1.31436166       0.03108605       8.39165028      -0.00561718       0.00399641       0.00223575
Sn       5.86793359       4.62841400       1.94509566      -0.01654993      -0.00177530      -0.00949254
Sn       2.77165479       1.60379926       6.18120092       0.01085715      -0.01078931       0.02590695
Sn       2.75303684       1.62837548       1.95197409       0.00050599      -0.01904164      -0.01410683
Sn       5.81820951       1.57296575       6.20597577       0.02452784       0.02266458      -0.03062401
Sn       5.83716321       4.64826558       6.17830371      -0.00472808       0.00854304       0.02067972
10
Lattice="3.013482887604292 -0.00042639233711832674 0.00014003477459368605 0.0010300861298037395 7.909693200051747 0.00037481786772639253 -0.0003251821026476493 -0.0003029203979632801 7.90159425330404" Properties=species:S:1:pos:R:3:forces:R:3 structure_index=18 total_energy=-28.908082962036133 stress="-0.01202383078634739 -2.7195894290343858e-05 -3.042276830456103e-07 -2.704368125705514e-05 -0.012634663842618465 4.256652027834207e-05 -2.8481730396379135e-07 4.23452838731464e-05 -0.012884793803095818" pbc="T T T"
Li       1.45216941       3.36264309       1.02269853      -0.00002291       0.02720309       0.02622986
Li       1.45246488       7.31693597       2.15987931       0.00031397       0.02743148      -0.02765098
Li       1.45146083       4.49911404       4.97287876       0.00091092      -0.02733256       0.02710137
Li       1.45171457       0.54487267       6.11017741      -0.00034174      -0.02746663      -0.02682042
Ga       2.95853679       2.88320799       6.58694043      -0.00043375      -0.01833484       0.01832200
Ga       2.95902936       1.02388822       0.54676199      -0.00101705       0.01789512      -0.01949031
Ga       2.95896584       4.97812970       2.63561416      -0.00047004       0.01916771       0.01923795
Ga       2.95898255       6.83792867       4.49693880      -0.00010902      -0.01864979      -0.01761235
Sn       2.95840716       5.90823423       7.51712147       0.00052452      -0.00010975      -0.00009008
Sn       2.95793970       1.95300348       3.56598817       0.00064510       0.00019613       0.00077298
8
Lattice="4.436344331155905 0.00027405621512525605 0.00028882030003721406 -0.0002783017976987636 4.4540932948808365 0.0014943067040683392 -0.0005853864067676712 -0.0033749164671542636 8.622029388499362" Properties=species:S:1:pos:R:3:forces:R:3 structure_index=19 total_energy=-25.175325393676758 stress="-0.014367833733558655 -2.4277313059428707e-05 3.155766171403229e-05 -2.4372435291297734e-05 -0.01579059474170208 -0.00010010790720116347 3.160643609589897e-05 -0.0001002003118628636 -0.02949848212301731" pbc="T T T"
Li       1.91446667       0.72567655       2.36417523       0.00019341       0.00008613       0.04468469
Li       1.91494792       0.72152494       6.85569334      -0.00015525       0.00134355      -0.04629644
Ga       4.13284629       2.95284152       2.37961723      -0.00002942      -0.00038087       0.01612414
Ga       4.13330104       2.95034168       6.83981323      -0.00082634       0.00000177      -0.01390454