phonopy:
  version: "2.37.1"
  frequency_unit_conversion_factor: 15.633302
  symmetry_tolerance: 1.00000e-05

space_group:
  type: "Pm-3m"
  number: 221
  Hall_symbol: "-P 4 2 3"

primitive_matrix:
- [  1.000000000000000,  0.000000000000000,  0.000000000000000 ]
- [  0.000000000000000,  1.000000000000000,  0.000000000000000 ]
- [  0.000000000000000,  0.000000000000000,  1.000000000000000 ]

supercell_matrix:
- [   3,   0,   0 ]
- [   0,   3,   0 ]
- [   0,   0,   3 ]

primitive_cell:
  lattice:
  - [     4.204922389156519,     0.000000000000000,     0.000000000000000 ] # a
  - [    -0.000000005372517,     4.204922404207836,     0.000000000000000 ] # b
  - [     0.000000031667699,     0.000000063450030,     4.204922415148761 ] # c
  points:
  - symbol: Li # 1
    coordinates: [  0.999999998583428,  0.500000000726594,  0.500000000634986 ]
    mass: 6.940000
  - symbol: Li # 2
    coordinates: [  0.500000000208312,  0.999999998954399,  0.500000000319005 ]
    mass: 6.940000
  - symbol: Li # 3
    coordinates: [  0.499999999580602,  0.500000000588283,  0.999999997662102 ]
    mass: 6.940000
  - symbol: Sn # 4
    coordinates: [  0.000000001493733,  0.999999999706849,  0.000000001379855 ]
    mass: 118.710000
  reciprocal_lattice: # without 2pi
  - [     0.237816517750425,     0.000000000303852,    -0.000000001791020 ] # a*
  - [     0.000000000000000,     0.237816516899172,    -0.000000003588524 ] # b*
  - [     0.000000000000000,     0.000000000000000,     0.237816516280389 ] # c*

unit_cell:
  lattice:
  - [     4.204922389156519,     0.000000000000000,     0.000000000000000 ] # a
  - [    -0.000000005372517,     4.204922404207836,     0.000000000000000 ] # b
  - [     0.000000031667699,     0.000000063450030,     4.204922415148761 ] # c
  points:
  - symbol: Li # 1
    coordinates: [  0.999999998583428,  0.500000000726594,  0.500000000634986 ]
    mass: 6.940000
    reduced_to: 1
  - symbol: Li # 2
    coordinates: [  0.500000000208312,  0.999999998954399,  0.500000000319006 ]
    mass: 6.940000
    reduced_to: 2
  - symbol: Li # 3
    coordinates: [  0.499999999580602,  0.500000000588284,  0.999999997662102 ]
    mass: 6.940000
    reduced_to: 3
  - symbol: Sn # 4
    coordinates: [  0.000000001493733,  0.999999999706849,  0.000000001379855 ]
    mass: 118.710000
    reduced_to: 4

supercell:
  lattice:
  - [    12.614767167469559,     0.000000000000000,     0.000000000000000 ] # a
  - [    -0.000000016117550,    12.614767212623509,     0.000000000000000 ] # b
  - [     0.000000095003096,     0.000000190350090,    12.614767245446284 ] # c
  points:
  - symbol: Li # 1
    coordinates: [  0.333333332861143,  0.166666666908865,  0.166666666878329 ]
    mass: 6.940000
    reduced_to: 1
  - symbol: Li # 2
    coordinates: [  0.666666666194476,  0.166666666908865,  0.166666666878329 ]
    mass: 6.940000
    reduced_to: 1
  - symbol: Li # 3
    coordinates: [  0.999999999527809,  0.166666666908865,  0.166666666878329 ]
    mass: 6.940000
    reduced_to: 1
  - symbol: Li # 4
    coordinates: [  0.333333332861143,  0.500000000242198,  0.166666666878329 ]
    mass: 6.940000
    reduced_to: 1
  - symbol: Li # 5
    coordinates: [  0.666666666194476,  0.500000000242198,  0.166666666878329 ]
    mass: 6.940000
    reduced_to: 1
  - symbol: Li # 6
    coordinates: [  0.999999999527809,  0.500000000242198,  0.166666666878329 ]
    mass: 6.940000
    reduced_to: 1
  - symbol: Li # 7
    coordinates: [  0.333333332861143,  0.833333333575531,  0.166666666878329 ]
    mass: 6.940000
    reduced_to: 1
  - symbol: Li # 8
    coordinates: [  0.666666666194476,  0.833333333575531,  0.166666666878329 ]
    mass: 6.940000
    reduced_to: 1
  - symbol: Li # 9
    coordinates: [  0.999999999527809,  0.833333333575531,  0.166666666878329 ]
    mass: 6.940000
    reduced_to: 1
  - symbol: Li # 10
    coordinates: [  0.333333332861143,  0.166666666908865,  0.500000000211662 ]
    mass: 6.940000
    reduced_to: 1
  - symbol: Li # 11
    coordinates: [  0.666666666194476,  0.166666666908865,  0.500000000211662 ]
    mass: 6.940000
    reduced_to: 1
  - symbol: Li # 12
    coordinates: [  0.999999999527809,  0.166666666908865,  0.500000000211662 ]
    mass: 6.940000
    reduced_to: 1
  - symbol: Li # 13
    coordinates: [  0.333333332861143,  0.500000000242198,  0.500000000211662 ]
    mass: 6.940000
    reduced_to: 1
  - symbol: Li # 14
    coordinates: [  0.666666666194476,  0.500000000242198,  0.500000000211662 ]
    mass: 6.940000
    reduced_to: 1
  - symbol: Li # 15
    coordinates: [  0.999999999527809,  0.500000000242198,  0.500000000211662 ]
    mass: 6.940000
    reduced_to: 1
  - symbol: Li # 16
    coordinates: [  0.333333332861143,  0.833333333575531,  0.500000000211662 ]
    mass: 6.940000
    reduced_to: 1
  - symbol: Li # 17
    coordinates: [  0.666666666194476,  0.833333333575531,  0.500000000211662 ]
    mass: 6.940000
    reduced_to: 1
  - symbol: Li # 18
    coordinates: [  0.999999999527809,  0.833333333575531,  0.500000000211662 ]
    mass: 6.940000
    reduced_to: 1
  - symbol: Li # 19
    coordinates: [  0.333333332861143,  0.166666666908865,  0.833333333544995 ]
    mass: 6.940000
    reduced_to: 1
  - symbol: Li # 20
    coordinates: [  0.666666666194476,  0.166666666908865,  0.833333333544995 ]
    mass: 6.940000
    reduced_to: 1
  - symbol: Li # 21
    coordinates: [  0.999999999527809,  0.166666666908865,  0.833333333544995 ]
    mass: 6.940000
    reduced_to: 1
  - symbol: Li # 22
    coordinates: [  0.333333332861143,  0.500000000242198,  0.833333333544995 ]
    mass: 6.940000
    reduced_to: 1
  - symbol: Li # 23
    coordinates: [  0.666666666194476,  0.500000000242198,  0.833333333544995 ]
    mass: 6.940000
    reduced_to: 1
  - symbol: Li # 24
    coordinates: [  0.999999999527809,  0.500000000242198,  0.833333333544995 ]
    mass: 6.940000
    reduced_to: 1
  - symbol: Li # 25
    coordinates: [  0.333333332861143,  0.833333333575531,  0.833333333544995 ]
    mass: 6.940000
    reduced_to: 1
  - symbol: Li # 26
    coordinates: [  0.666666666194476,  0.833333333575531,  0.833333333544995 ]
    mass: 6.940000
    reduced_to: 1
  - symbol: Li # 27
    coordinates: [  0.999999999527809,  0.833333333575531,  0.833333333544995 ]
    mass: 6.940000
    reduced_to: 1
  - symbol: Li # 28
    coordinates: [  0.166666666736104,  0.333333332984800,  0.166666666773002 ]
    mass: 6.940000
    reduced_to: 28
  - symbol: Li # 29
    coordinates: [  0.500000000069437,  0.333333332984800,  0.166666666773002 ]
    mass: 6.940000
    reduced_to: 28
  - symbol: Li # 30
    coordinates: [  0.833333333402771,  0.333333332984800,  0.166666666773002 ]
    mass: 6.940000
    reduced_to: 28
  - symbol: Li # 31
    coordinates: [  0.166666666736104,  0.666666666318133,  0.166666666773002 ]
    mass: 6.940000
    reduced_to: 28
  - symbol: Li # 32
    coordinates: [  0.500000000069437,  0.666666666318133,  0.166666666773002 ]
    mass: 6.940000
    reduced_to: 28
  - symbol: Li # 33
    coordinates: [  0.833333333402771,  0.666666666318133,  0.166666666773002 ]
    mass: 6.940000
    reduced_to: 28
  - symbol: Li # 34
    coordinates: [  0.166666666736104,  0.999999999651466,  0.166666666773002 ]
    mass: 6.940000
    reduced_to: 28
  - symbol: Li # 35
    coordinates: [  0.500000000069437,  0.999999999651466,  0.166666666773002 ]
    mass: 6.940000
    reduced_to: 28
  - symbol: Li # 36
    coordinates: [  0.833333333402771,  0.999999999651466,  0.166666666773002 ]
    mass: 6.940000
    reduced_to: 28
  - symbol: Li # 37
    coordinates: [  0.166666666736104,  0.333333332984800,  0.500000000106335 ]
    mass: 6.940000
    reduced_to: 28
  - symbol: Li # 38
    coordinates: [  0.500000000069437,  0.333333332984800,  0.500000000106335 ]
    mass: 6.940000
    reduced_to: 28
  - symbol: Li # 39
    coordinates: [  0.833333333402771,  0.333333332984800,  0.500000000106335 ]
    mass: 6.940000
    reduced_to: 28
  - symbol: Li # 40
    coordinates: [  0.166666666736104,  0.666666666318133,  0.500000000106335 ]
    mass: 6.940000
    reduced_to: 28
  - symbol: Li # 41
    coordinates: [  0.500000000069437,  0.666666666318133,  0.500000000106335 ]
    mass: 6.940000
    reduced_to: 28
  - symbol: Li # 42
    coordinates: [  0.833333333402771,  0.666666666318133,  0.500000000106335 ]
    mass: 6.940000
    reduced_to: 28
  - symbol: Li # 43
    coordinates: [  0.166666666736104,  0.999999999651466,  0.500000000106335 ]
    mass: 6.940000
    reduced_to: 28
  - symbol: Li # 44
    coordinates: [  0.500000000069437,  0.999999999651466,  0.500000000106335 ]
    mass: 6.940000
    reduced_to: 28
  - symbol: Li # 45
    coordinates: [  0.833333333402771,  0.999999999651466,  0.500000000106335 ]
    mass: 6.940000
    reduced_to: 28
  - symbol: Li # 46
    coordinates: [  0.166666666736104,  0.333333332984800,  0.833333333439669 ]
    mass: 6.940000
    reduced_to: 28
  - symbol: Li # 47
    coordinates: [  0.500000000069437,  0.333333332984800,  0.833333333439669 ]
    mass: 6.940000
    reduced_to: 28
  - symbol: Li # 48
    coordinates: [  0.833333333402771,  0.333333332984800,  0.833333333439669 ]
    mass: 6.940000
    reduced_to: 28
  - symbol: Li # 49
    coordinates: [  0.166666666736104,  0.666666666318133,  0.833333333439669 ]
    mass: 6.940000
    reduced_to: 28
  - symbol: Li # 50
    coordinates: [  0.500000000069437,  0.666666666318133,  0.833333333439669 ]
    mass: 6.940000
    reduced_to: 28
  - symbol: Li # 51
    coordinates: [  0.833333333402771,  0.666666666318133,  0.833333333439669 ]
    mass: 6.940000
    reduced_to: 28
  - symbol: Li # 52
    coordinates: [  0.166666666736104,  0.999999999651466,  0.833333333439669 ]
    mass: 6.940000
    reduced_to: 28
  - symbol: Li # 53
    coordinates: [  0.500000000069437,  0.999999999651466,  0.833333333439669 ]
    mass: 6.940000
    reduced_to: 28
  - symbol: Li # 54
    coordinates: [  0.833333333402771,  0.999999999651466,  0.833333333439669 ]
    mass: 6.940000
    reduced_to: 28
  - symbol: Li # 55
    coordinates: [  0.166666666526867,  0.166666666862761,  0.333333332554034 ]
    mass: 6.940000
    reduced_to: 55
  - symbol: Li # 56
    coordinates: [  0.499999999860201,  0.166666666862761,  0.333333332554034 ]
    mass: 6.940000
    reduced_to: 55
  - symbol: Li # 57
    coordinates: [  0.833333333193534,  0.166666666862761,  0.333333332554034 ]
    mass: 6.940000
    reduced_to: 55
  - symbol: Li # 58
    coordinates: [  0.166666666526867,  0.500000000196094,  0.333333332554034 ]
    mass: 6.940000
    reduced_to: 55
  - symbol: Li # 59
    coordinates: [  0.499999999860201,  0.500000000196094,  0.333333332554034 ]
    mass: 6.940000
    reduced_to: 55
  - symbol: Li # 60
    coordinates: [  0.833333333193534,  0.500000000196094,  0.333333332554034 ]
    mass: 6.940000
    reduced_to: 55
  - symbol: Li # 61
    coordinates: [  0.166666666526867,  0.833333333529428,  0.333333332554034 ]
    mass: 6.940000
    reduced_to: 55
  - symbol: Li # 62
    coordinates: [  0.499999999860201,  0.833333333529428,  0.333333332554034 ]
    mass: 6.940000
    reduced_to: 55
  - symbol: Li # 63
    coordinates: [  0.833333333193534,  0.833333333529428,  0.333333332554034 ]
    mass: 6.940000
    reduced_to: 55
  - symbol: Li # 64
    coordinates: [  0.166666666526867,  0.166666666862761,  0.666666665887367 ]
    mass: 6.940000
    reduced_to: 55
  - symbol: Li # 65
    coordinates: [  0.499999999860201,  0.166666666862761,  0.666666665887367 ]
    mass: 6.940000
    reduced_to: 55
  - symbol: Li # 66
    coordinates: [  0.833333333193534,  0.166666666862761,  0.666666665887367 ]
    mass: 6.940000
    reduced_to: 55
  - symbol: Li # 67
    coordinates: [  0.166666666526867,  0.500000000196094,  0.666666665887367 ]
    mass: 6.940000
    reduced_to: 55
  - symbol: Li # 68
    coordinates: [  0.499999999860201,  0.500000000196094,  0.666666665887367 ]
    mass: 6.940000
    reduced_to: 55
  - symbol: Li # 69
    coordinates: [  0.833333333193534,  0.500000000196094,  0.666666665887367 ]
    mass: 6.940000
    reduced_to: 55
  - symbol: Li # 70
    coordinates: [  0.166666666526867,  0.833333333529428,  0.666666665887367 ]
    mass: 6.940000
    reduced_to: 55
  - symbol: Li # 71
    coordinates: [  0.499999999860201,  0.833333333529428,  0.666666665887367 ]
    mass: 6.940000
    reduced_to: 55
  - symbol: Li # 72
    coordinates: [  0.833333333193534,  0.833333333529428,  0.666666665887367 ]
    mass: 6.940000
    reduced_to: 55
  - symbol: Li # 73
    coordinates: [  0.166666666526867,  0.166666666862761,  0.999999999220701 ]
    mass: 6.940000
    reduced_to: 55
  - symbol: Li # 74
    coordinates: [  0.499999999860201,  0.166666666862761,  0.999999999220701 ]
    mass: 6.940000
    reduced_to: 55
  - symbol: Li # 75
    coordinates: [  0.833333333193534,  0.166666666862761,  0.999999999220701 ]
    mass: 6.940000
    reduced_to: 55
  - symbol: Li # 76
    coordinates: [  0.166666666526867,  0.500000000196094,  0.999999999220701 ]
    mass: 6.940000
    reduced_to: 55
  - symbol: Li # 77
    coordinates: [  0.499999999860201,  0.500000000196094,  0.999999999220701 ]
    mass: 6.940000
    reduced_to: 55
  - symbol: Li # 78
    coordinates: [  0.833333333193534,  0.500000000196094,  0.999999999220701 ]
    mass: 6.940000
    reduced_to: 55
  - symbol: Li # 79
    coordinates: [  0.166666666526867,  0.833333333529428,  0.999999999220701 ]
    mass: 6.940000
    reduced_to: 55
  - symbol: Li # 80
    coordinates: [  0.499999999860201,  0.833333333529428,  0.999999999220701 ]
    mass: 6.940000
    reduced_to: 55
  - symbol: Li # 81
    coordinates: [  0.833333333193534,  0.833333333529428,  0.999999999220701 ]
    mass: 6.940000
    reduced_to: 55
  - symbol: Sn # 82
    coordinates: [  0.000000000497911,  0.333333333235616,  0.000000000459952 ]
    mass: 118.710000
    reduced_to: 82
  - symbol: Sn # 83
    coordinates: [  0.333333333831244,  0.333333333235616,  0.000000000459952 ]
    mass: 118.710000
    reduced_to: 82
  - symbol: Sn # 84
    coordinates: [  0.666666667164578,  0.333333333235616,  0.000000000459952 ]
    mass: 118.710000
    reduced_to: 82
  - symbol: Sn # 85
    coordinates: [  0.000000000497911,  0.666666666568950,  0.000000000459952 ]
    mass: 118.710000
    reduced_to: 82
  - symbol: Sn # 86
    coordinates: [  0.333333333831244,  0.666666666568950,  0.000000000459952 ]
    mass: 118.710000
    reduced_to: 82
  - symbol: Sn # 87
    coordinates: [  0.666666667164578,  0.666666666568950,  0.000000000459952 ]
    mass: 118.710000
    reduced_to: 82
  - symbol: Sn # 88
    coordinates: [  0.000000000497911,  0.999999999902283,  0.000000000459952 ]
    mass: 118.710000
    reduced_to: 82
  - symbol: Sn # 89
    coordinates: [  0.333333333831244,  0.999999999902283,  0.000000000459952 ]
    mass: 118.710000
    reduced_to: 82
  - symbol: Sn # 90
    coordinates: [  0.666666667164578,  0.999999999902283,  0.000000000459952 ]
    mass: 118.710000
    reduced_to: 82
  - symbol: Sn # 91
    coordinates: [  0.000000000497911,  0.333333333235616,  0.333333333793285 ]
    mass: 118.710000
    reduced_to: 82
  - symbol: Sn # 92
    coordinates: [  0.333333333831244,  0.333333333235616,  0.333333333793285 ]
    mass: 118.710000
    reduced_to: 82
  - symbol: Sn # 93
    coordinates: [  0.666666667164578,  0.333333333235616,  0.333333333793285 ]
    mass: 118.710000
    reduced_to: 82
  - symbol: Sn # 94
    coordinates: [  0.000000000497911,  0.666666666568950,  0.333333333793285 ]
    mass: 118.710000
    reduced_to: 82
  - symbol: Sn # 95
    coordinates: [  0.333333333831244,  0.666666666568950,  0.333333333793285 ]
    mass: 118.710000
    reduced_to: 82
  - symbol: Sn # 96
    coordinates: [  0.666666667164578,  0.666666666568950,  0.333333333793285 ]
    mass: 118.710000
    reduced_to: 82
  - symbol: Sn # 97
    coordinates: [  0.000000000497911,  0.999999999902283,  0.333333333793285 ]
    mass: 118.710000
    reduced_to: 82
  - symbol: Sn # 98
    coordinates: [  0.333333333831244,  0.999999999902283,  0.333333333793285 ]
    mass: 118.710000
    reduced_to: 82
  - symbol: Sn # 99
    coordinates: [  0.666666667164578,  0.999999999902283,  0.333333333793285 ]
    mass: 118.710000
    reduced_to: 82
  - symbol: Sn # 100
    coordinates: [  0.000000000497911,  0.333333333235616,  0.666666667126618 ]
    mass: 118.710000
    reduced_to: 82
  - symbol: Sn # 101
    coordinates: [  0.333333333831244,  0.333333333235616,  0.666666667126618 ]
    mass: 118.710000
    reduced_to: 82
  - symbol: Sn # 102
    coordinates: [  0.666666667164578,  0.333333333235616,  0.666666667126618 ]
    mass: 118.710000
    reduced_to: 82
  - symbol: Sn # 103
    coordinates: [  0.000000000497911,  0.666666666568950,  0.666666667126618 ]
    mass: 118.710000
    reduced_to: 82
  - symbol: Sn # 104
    coordinates: [  0.333333333831244,  0.666666666568950,  0.666666667126618 ]
    mass: 118.710000
    reduced_to: 82
  - symbol: Sn # 105
    coordinates: [  0.666666667164578,  0.666666666568950,  0.666666667126618 ]
    mass: 118.710000
    reduced_to: 82
  - symbol: Sn # 106
    coordinates: [  0.000000000497911,  0.999999999902283,  0.666666667126618 ]
    mass: 118.710000
    reduced_to: 82
  - symbol: Sn # 107
    coordinates: [  0.333333333831244,  0.999999999902283,  0.666666667126618 ]
    mass: 118.710000
    reduced_to: 82
  - symbol: Sn # 108
    coordinates: [  0.666666667164578,  0.999999999902283,  0.666666667126618 ]
    mass: 118.710000
    reduced_to: 82

displacements:
- atom:    1
  displacement:
    [   0.0070710677946929,  0.0070710678290380,  0.0000000000000000 ]
  forces:
  - [  -0.0131648629903793, -0.0140670565888286,  0.0000003760651452 ]
  - [  -0.0007564448751509,  0.0001272819936275,  0.0000003889581421 ]
  - [  -0.0007495997706428,  0.0001242284924956,  0.0000004116445780 ]
  - [  -0.0000047876965255, -0.0002443306148052, -0.0000006221962394 ]
  - [  -0.0000469987280667, -0.0000490657985210, -0.0000007236085366 ]
  - [  -0.0000563344947295, -0.0000569047406316, -0.0000009377254173 ]
  - [  -0.0000066161155701, -0.0002329461276531,  0.0000003100140020 ]
  - [  -0.0000552260316908, -0.0000581443309784,  0.0000003514578566 ]
  - [  -0.0000507631848450, -0.0000522993505001,  0.0000001220032573 ]
  - [  -0.0000055250020523, -0.0000532604753971, -0.0000019312719814 ]
  - [  -0.0000515375286341, -0.0000147745013237,  0.0000035152916098 ]
  - [  -0.0000529371027369, -0.0000141886994243, -0.0000030333176255 ]
  - [  -0.0000959808676271, -0.0007182434201241, -0.0005878072697669 ]
  - [   0.0000137498136610,  0.0000030770897865, -0.0000028693029890 ]
  - [   0.0000017486711386, -0.0000082859769464, -0.0000137736351462 ]
  - [  -0.0000937424338190, -0.0007286630570889,  0.0005975264939480 ]
  - [   0.0000017990823835, -0.0000091493129730,  0.0000127965759020 ]
  - [   0.0000128900692289,  0.0000022202730179,  0.0000016099802451 ]
  - [  -0.0000057640063460, -0.0000537596642971,  0.0000003847235348 ]
  - [  -0.0000515112187713, -0.0000152848660946, -0.0000050599337555 ]
  - [  -0.0000532636004209, -0.0000149607658386,  0.0000016840494936 ]
  - [  -0.0000963338170550, -0.0007197745144367,  0.0005858486401848 ]
  - [   0.0000135274603963,  0.0000018328428268,  0.0000009605719242 ]
  - [   0.0000010992478110, -0.0000093262642622,  0.0000123136123875 ]
  - [  -0.0000937946388149, -0.0007290653884411, -0.0005995174287818 ]
  - [   0.0000017783604562, -0.0000096447765827, -0.0000144422519952 ]
  - [   0.0000124566067825,  0.0000017359852791, -0.0000029424118111 ]
  - [  -0.0002413364127278, -0.0000163451040862, -0.0000003576278687 ]
  - [   0.0031688241288066,  0.0029373064171523, -0.0000004116445780 ]
  - [   0.0000201294024009, -0.0000002281009301, -0.0000000325962901 ]
  - [  -0.0000005904585123,  0.0000221726950258,  0.0000000400468707 ]
  - [  -0.0000018505379558,  0.0000218830009544, -0.0000002468004823 ]
  - [   0.0000010761577869,  0.0000025378017199,  0.0000002374872565 ]
  - [   0.0031005768105388,  0.0028655224014074,  0.0000000959262252 ]
  - [  -0.0002489108592272, -0.0000059784506448, -0.0000002318993211 ]
  - [   0.0000210665602935, -0.0000006209593266,  0.0000001806765795 ]
  - [   0.0003565717488527,  0.0001616284716874, -0.0002210522070527 ]
  - [  -0.0001170523464680,  0.0000732508779038,  0.0000847047194839 ]
  - [  -0.0000010617077351, -0.0000004970672762, -0.0000338265672326 ]
  - [  -0.0000007245689631, -0.0000000372137947, -0.0000028191134334 ]
  - [  -0.0000007078051567, -0.0000001771456937,  0.0000012824311852 ]
  - [  -0.0000012405216694, -0.0000007782616649, -0.0000009303912520 ]
  - [  -0.0001175813376904,  0.0000761379487813, -0.0000856891274452 ]
  - [   0.0003506503999233,  0.0001619447430130,  0.0002137720584869 ]
  - [  -0.0000001490116119,  0.0000000176951289,  0.0000323895365000 ]
  - [   0.0003568958491087,  0.0001620062103029,  0.0002197695284849 ]
  - [  -0.0001173736527562,  0.0000737683658372, -0.0000876330304891 ]
  - [  -0.0000006221234798,  0.0000000255338364,  0.0000319365644827 ]
  - [  -0.0000002421438694,  0.0000005358349426,  0.0000016411358956 ]
  - [  -0.0000009052455425,  0.0000004899666237, -0.0000040749873733 ]
  - [  -0.0000005289912224, -0.0000002378617978, -0.0000009149371181 ]
  - [  -0.0001174546778202,  0.0000762788113207,  0.0000851312652230 ]
  - [   0.0003501977771521,  0.0001619303657208, -0.0002160947769880 ]
  - [   0.0000004582107067,  0.0000000053551048, -0.0000337380915880 ]
  - [   0.0014427034184337, -0.0001538835495012, -0.0014502322301269 ]
  - [   0.0014457609504461, -0.0001602812553756,  0.0014625336043537 ]
  - [   0.0000202469527721,  0.0000229009892792,  0.0000000493600965 ]
  - [   0.0001851152628660, -0.0001390390098095,  0.0001956205815077 ]
  - [   0.0000528339296579,  0.0001667439937592,  0.0001071584410965 ]
  - [  -0.0000012297823559, -0.0000116378068924,  0.0000029960647225 ]
  - [   0.0000515589490533,  0.0001654736697674, -0.0001097307540476 ]
  - [   0.0001834686845541, -0.0001365244388580, -0.0001951602753252 ]
  - [  -0.0000001329899533, -0.0000126063823700, -0.0000027599744499 ]
  - [  -0.0000007813796401,  0.0000234347826336,  0.0000002153683454 ]
  - [  -0.0000009499490261,  0.0000235898041865,  0.0000008018687367 ]
  - [   0.0000011809170246, -0.0000076374708442,  0.0000006817281246 ]
  - [   0.0000329948961735, -0.0000137984752655,  0.0000005636829883 ]
  - [  -0.0000339010730386, -0.0000073872506618,  0.0000012167729437 ]
  - [  -0.0000006512709660,  0.0000046566128731,  0.0000011008232832 ]
  - [  -0.0000332007184625, -0.0000092424452305,  0.0000004731118679 ]
  - [   0.0000330805778503, -0.0000134557485580,  0.0000008635688573 ]
  - [  -0.0000011718948372,  0.0000044405460358,  0.0000007580965757 ]
  - [   0.0014424743130803, -0.0001542952086311,  0.0014504375867546 ]
  - [   0.0014459984377027, -0.0001604407443665, -0.0014619932044297 ]
  - [   0.0000201649963856,  0.0000225177682296,  0.0000000878655442 ]
  - [   0.0001851432025433, -0.0001407526433468, -0.0001948385615833 ]
  - [   0.0000531133264303,  0.0001655071973801, -0.0001063969975803 ]
  - [  -0.0000001207954483, -0.0000132620334625, -0.0000023908141884 ]
  - [   0.0000510932877660,  0.0001651421189308,  0.0001095900151995 ]
  - [   0.0001836558803916, -0.0001361928880215,  0.0001952810271177 ]
  - [  -0.0000000017898856, -0.0000123232603073,  0.0000025169902074 ]
  - [  -0.0002179706934839,  0.0000564369838685,  0.0000710934400558 ]
  - [   0.0004761008312926,  0.0025344181340188, -0.0028462924528867 ]
  - [   0.0002150572836399,  0.0001124541813624,  0.0000161293792189 ]
  - [  -0.0000046255881898, -0.0000330407565343, -0.0000009275972843 ]
  - [   0.0000123655217976,  0.0003749865572900,  0.0000000374859610 ]
  - [  -0.0000046156346798, -0.0000335697477567,  0.0000028775893952 ]
  - [   0.0002122665027855,  0.0001109577715397, -0.0000154078006744 ]
  - [   0.0004866061499342,  0.0024993638508022,  0.0027912855148315 ]
  - [  -0.0002192519605160,  0.0000567035749555, -0.0000707022845745 ]
  - [  -0.0002189271326642,  0.0000544674694538, -0.0000699348747730 ]
  - [   0.0004764696350321,  0.0025327138137072,  0.0028467588126659 ]
  - [   0.0002150088548660,  0.0001114213955589, -0.0000152140855789 ]
  - [  -0.0000052845889513, -0.0000327241068590,  0.0000022053718567 ]
  - [   0.0000122276860566,  0.0003751107724383,  0.0000009685754776 ]
  - [  -0.0000042542815208, -0.0000338045538228, -0.0000014863908291 ]
  - [   0.0002122528530890,  0.0001101717352867,  0.0000161975622177 ]
  - [   0.0004868706455454,  0.0024985927157104, -0.0027908459305763 ]
  - [  -0.0002189464867115,  0.0000560046173632,  0.0000714063644409 ]
  - [   0.0000146389402289, -0.0000011399388313,  0.0000022277235985 ]
  - [   0.0000111125409603, -0.0000298996455967,  0.0000023581087589 ]
  - [  -0.0000236071646214, -0.0000039609149098,  0.0000013411045074 ]
  - [   0.0000000176945605,  0.0000021085143089,  0.0000013485550880 ]
  - [   0.0000014603137970,  0.0000578816980124,  0.0000015273690224 ]
  - [  -0.0000000894069672,  0.0000028484500945,  0.0000003799796104 ]
  - [  -0.0000246138806688, -0.0000032559037209,  0.0000019446015358 ]
  - [   0.0000111237168312, -0.0000300328247249,  0.0000019147992134 ]
  - [   0.0000150352716446, -0.0000005709007382,  0.0000012069940567 ]
- atom:   82
  displacement:
    [   0.0100000000000000,  0.0000000000000000,  0.0000000000000000 ]
  forces:
  - [  -0.0000065951608121, -0.0003074668347836,  0.0003078643640038 ]
  - [  -0.0000035786069930,  0.0003039725124836, -0.0003036356065422 ]
  - [   0.0006800720584579,  0.0000177305191755, -0.0000171987339854 ]
  - [  -0.0000066179782152,  0.0003067292273045,  0.0003065895871259 ]
  - [  -0.0000028903596103, -0.0003047399222851, -0.0003048249054700 ]
  - [   0.0006801626295783, -0.0000181077048182, -0.0000185998505913 ]
  - [  -0.0000078666489571, -0.0000010319054127, -0.0000277975050267 ]
  - [  -0.0000078598968685, -0.0000006519258022,  0.0000277037179330 ]
  - [   0.0000162086871569, -0.0000005699694157, -0.0000013182871044 ]
  - [  -0.0000076628502939,  0.0000283829867840, -0.0000004967878340 ]
  - [  -0.0000076785217971, -0.0000269487500191, -0.0000006686022971 ]
  - [   0.0000165484070749,  0.0000015264376998, -0.0000003958120942 ]
  - [  -0.0000076768210420, -0.0000266879796982, -0.0000000913423719 ]
  - [  -0.0000071271788329,  0.0000281669199467, -0.0000003217865014 ]
  - [   0.0000167867365235, -0.0000002728775144,  0.0000003372697392 ]
  - [  -0.0000016162400698, -0.0000002905726433, -0.0000010828371160 ]
  - [  -0.0000005981419235, -0.0000002086162567, -0.0000012195378076 ]
  - [   0.0000031307401969, -0.0000003576278687, -0.0000008387141861 ]
  - [  -0.0000066981083364, -0.0003074891865253, -0.0003085058997385 ]
  - [  -0.0000031194649637,  0.0003039464354515,  0.0003034083638340 ]
  - [   0.0006797733949497,  0.0000175070017576,  0.0000169109262060 ]
  - [  -0.0000067945165938,  0.0003072768449783, -0.0003091903927270 ]
  - [  -0.0000028666108847, -0.0003044530749321,  0.0003024200850632 ]
  - [   0.0006798445829190, -0.0000183414667845,  0.0000163136137417 ]
  - [  -0.0000080672925833, -0.0000007525086403,  0.0000271817989415 ]
  - [  -0.0000075337011367, -0.0000006593763828, -0.0000278247607639 ]
  - [   0.0000161888838193, -0.0000005960464478,  0.0000008723727660 ]
  - [   0.0036052195355296,  0.0000004732059438,  0.0040688011795282 ]
  - [   0.0005261078476906,  0.0000002401448569,  0.0000048661604524 ]
  - [   0.0035096511710435,  0.0000006785429605, -0.0039039971306920 ]
  - [   0.0001172544434667,  0.0000378156546503, -0.0000635292381048 ]
  - [  -0.0000513698905706,  0.0000007065886507, -0.0000006724148989 ]
  - [   0.0001179333921755, -0.0000405470418627,  0.0000588279217482 ]
  - [   0.0001171836629510, -0.0000370480120182, -0.0000637685880065 ]
  - [  -0.0000507952645421,  0.0000004547182471, -0.0000007227063179 ]
  - [   0.0001180255349027,  0.0000414687674493,  0.0000587161630392 ]
  - [  -0.0000432003289461, -0.0000004346948117, -0.0000000195577741 ]
  - [   0.0000836029648781, -0.0000008740199746, -0.0000008158385754 ]
  - [  -0.0000431239604950, -0.0000003997445788, -0.0000005532056093 ]
  - [  -0.0000028852373362, -0.0000026961406547, -0.0000004637986422 ]
  - [   0.0000043818727136, -0.0000011792483292, -0.0000011865049601 ]
  - [  -0.0000041089951992,  0.0000014604056560, -0.0000008381903172 ]
  - [  -0.0000027343630791,  0.0000018726568669, -0.0000000745058060 ]
  - [   0.0000047124922276,  0.0000001905282261, -0.0000007636845112 ]
  - [  -0.0000039078295231, -0.0000022603198886, -0.0000006174668670 ]
  - [   0.0036048144102097,  0.0000000335612924, -0.0040703518316150 ]
  - [   0.0005259942263365, -0.0000003141580578, -0.0000071973045124 ]
  - [   0.0035096034407616,  0.0000000231559198,  0.0039027140010148 ]
  - [   0.0001167636364698,  0.0000369980480173,  0.0000628651323495 ]
  - [  -0.0000510904937983, -0.0000006441505320, -0.0000010367366485 ]
  - [   0.0001177638769150, -0.0000416758994106, -0.0000594447046751 ]
  - [   0.0001168511807919, -0.0000371383503079,  0.0000630859431112 ]
  - [  -0.0000509666278958,  0.0000001489243004, -0.0000009592622519 ]
  - [   0.0001179128885269,  0.0000414242967963, -0.0000591808930039 ]
  - [   0.0001164730638266,  0.0000636390468571,  0.0000373742077500 ]
  - [  -0.0000510979443789,  0.0000005904439604,  0.0000001718290150 ]
  - [   0.0001174844801426, -0.0000586328824284, -0.0000411057844758 ]
  - [   0.0001165401190519, -0.0000634565949440,  0.0000375814270228 ]
  - [  -0.0000510029494762, -0.0000002235174179,  0.0000002030283213 ]
  - [   0.0001165465946542,  0.0000583492219448, -0.0000409320928156 ]
  - [  -0.0000020973384380, -0.0000006817281246, -0.0000019592698663 ]
  - [   0.0000047236680984, -0.0000014007091522, -0.0000002277083695 ]
  - [  -0.0000034992699511, -0.0000009611248970,  0.0000021969899535 ]
  - [   0.0001170542091131,  0.0000638712663203, -0.0000371118076146 ]