# Thermal properties / unit cell (natom)

unit:
  temperature:   K
  free_energy:   kJ/mol
  entropy:       J/K/mol
  heat_capacity: J/K/mol

natom: 7    
cutoff_frequency: 0.00000
num_modes: 138915
num_integrated_modes: 136367

zero_point_energy:      25.9307932

thermal_properties:
- temperature:         0.0000000
  free_energy:        25.9307932
  entropy:             0.0000000
  heat_capacity:       0.0000000
  energy:             25.9307932

- temperature:        10.0000000
  free_energy:        25.9249550
  entropy:             1.6942740
  heat_capacity:       3.4586834
  energy:             25.9418977

- temperature:        20.0000000
  free_energy:        25.8840388
  entropy:             7.1414107
  heat_capacity:      14.6307243
  energy:             26.0268670

- temperature:        30.0000000
  free_energy:        25.7715556
  entropy:            15.7169237
  heat_capacity:      28.4909171
  energy:             26.2430633

- temperature:        40.0000000
  free_energy:        25.5653888
  entropy:            25.6217229
  heat_capacity:      40.5794172
  energy:             26.5902577

- temperature:        50.0000000
  free_energy:        25.2582760
  entropy:            35.8024676
  heat_capacity:      50.8072315
  energy:             27.0483993

- temperature:        60.0000000
  free_energy:        24.8496925
  entropy:            45.8855181
  heat_capacity:      59.9483855
  energy:             27.6028236

- temperature:        70.0000000
  free_energy:        24.3412223
  entropy:            55.7738446
  heat_capacity:      68.4862297
  energy:             28.2453914

- temperature:        80.0000000
  free_energy:        23.7349149
  entropy:            65.4527245
  heat_capacity:      76.5942876
  energy:             28.9711329

- temperature:        90.0000000
  free_energy:        23.0328645
  entropy:            74.9224695
  heat_capacity:      84.2836069
  energy:             29.7758867

- temperature:       100.0000000
  free_energy:        22.2371693
  entropy:            84.1809340
  heat_capacity:      91.5103594
  energy:             30.6552627

- temperature:       110.0000000
  free_energy:        21.3499699
  entropy:            93.2221098
  heat_capacity:      98.2302580
  energy:             31.6044020

- temperature:       120.0000000
  free_energy:        20.3734766
  entropy:           102.0384756
  heat_capacity:     104.4186636
  energy:             32.6180937

- temperature:       130.0000000
  free_energy:        19.3099726
  entropy:           110.6232431
  heat_capacity:     110.0733774
  energy:             33.6909942

- temperature:       140.0000000
  free_energy:        18.1617998
  entropy:           118.9716767
  heat_capacity:     115.2105000
  energy:             34.8178345

- temperature:       150.0000000
  free_energy:        16.9313344
  entropy:           127.0815932
  heat_capacity:     119.8586095
  energy:             35.9935734

- temperature:       160.0000000
  free_energy:        15.6209621
  entropy:           134.9533344
  heat_capacity:     124.0534851
  energy:             37.2134956

- temperature:       170.0000000
  free_energy:        14.2330533
  entropy:           142.5894634
  heat_capacity:     127.8340650
  energy:             38.4732621

- temperature:       180.0000000
  free_energy:        12.7699438
  entropy:           149.9943517
  heat_capacity:     131.2396498
  energy:             39.7689271

- temperature:       190.0000000
  free_energy:        11.2339180
  entropy:           157.1737562
  heat_capacity:     134.3081267
  energy:             41.0969317

- temperature:       200.0000000
  free_energy:         9.6271978
  entropy:           164.1344330
  heat_capacity:     137.0749469
  energy:             42.4540844

- temperature:       210.0000000
  free_energy:         7.9519337
  entropy:           170.8838099
  heat_capacity:     139.5726209
  energy:             43.8375338

- temperature:       220.0000000
  free_energy:         6.2101999
  entropy:           177.4297190
  heat_capacity:     141.8305537
  energy:             45.2447380

- temperature:       230.0000000
  free_energy:         4.4039908
  entropy:           183.7801872
  heat_capacity:     143.8750891
  energy:             46.6734339

- temperature:       240.0000000
  free_energy:         2.5352207
  entropy:           189.9432760
  heat_capacity:     145.7296752
  energy:             48.1216070

- temperature:       250.0000000
  free_energy:         0.6057233
  entropy:           195.9269619
  heat_capacity:     147.4150920
  energy:             49.5874638

- temperature:       260.0000000
  free_energy:        -1.3827466
  entropy:           201.7390497
  heat_capacity:     148.9497037
  energy:             51.0694064

- temperature:       270.0000000
  free_energy:        -3.4285110
  entropy:           207.3871124
  heat_capacity:     150.3497141
  energy:             52.5660094

- temperature:       280.0000000
  free_energy:        -5.5299664
  entropy:           212.8784507
  heat_capacity:     151.6294107
  energy:             54.0759998

- temperature:       290.0000000
  free_energy:        -7.6855810
  entropy:           218.2200678
  heat_capacity:     152.8013901
  energy:             55.5982387

- temperature:       300.0000000
  free_energy:        -9.8938911
  entropy:           223.4186559
  heat_capacity:     153.8767639
  energy:             57.1317057

- temperature:       310.0000000
  free_energy:       -12.1534986
  entropy:           228.4805916
  heat_capacity:     154.8653411
  energy:             58.6754848

- temperature:       320.0000000
  free_energy:       -14.4630676
  entropy:           233.4119370
  heat_capacity:     155.7757912
  energy:             60.2287522

- temperature:       330.0000000
  free_energy:       -16.8213212
  entropy:           238.2184458
  heat_capacity:     156.6157865
  energy:             61.7907659

- temperature:       340.0000000
  free_energy:       -19.2270386
  entropy:           242.9055720
  heat_capacity:     157.3921266
  energy:             63.3608558

- temperature:       350.0000000
  free_energy:       -21.6790520
  entropy:           247.4784811
  heat_capacity:     158.1108479
  energy:             64.9384164

- temperature:       360.0000000
  free_energy:       -24.1762439
  entropy:           251.9420626
  heat_capacity:     158.7773179
  energy:             66.5228987

- temperature:       370.0000000
  free_energy:       -26.7175443
  entropy:           256.3009428
  heat_capacity:     159.3963177
  energy:             68.1138046

- temperature:       380.0000000
  free_energy:       -29.3019283
  entropy:           260.5594984
  heat_capacity:     159.9721137
  energy:             69.7106811

- temperature:       390.0000000
  free_energy:       -31.9284137
  entropy:           264.7218699
  heat_capacity:     160.5085198
  energy:             71.3131156

- temperature:       400.0000000
  free_energy:       -34.5960582
  entropy:           268.7919745
  heat_capacity:     161.0089514
  energy:             72.9207316

- temperature:       410.0000000
  free_energy:       -37.3039580
  entropy:           272.7735193
  heat_capacity:     161.4764725
  energy:             74.5331850

- temperature:       420.0000000
  free_energy:       -40.0512451
  entropy:           276.6700135
  heat_capacity:     161.9138370
  energy:             76.1501606

- temperature:       430.0000000
  free_energy:       -42.8370858
  entropy:           280.4847798
  heat_capacity:     162.3235241
  energy:             77.7713695

- temperature:       440.0000000
  free_energy:       -45.6606788
  entropy:           284.2209660
  heat_capacity:     162.7077696
  energy:             79.3965463

- temperature:       450.0000000
  free_energy:       -48.5212532
  entropy:           287.8815555
  heat_capacity:     163.0685937
  energy:             81.0254468

- temperature:       460.0000000
  free_energy:       -51.4180673
  entropy:           291.4693772
  heat_capacity:     163.4078239
  energy:             82.6578462

- temperature:       470.0000000
  free_energy:       -54.3504071
  entropy:           294.9871148
  heat_capacity:     163.7271170
  energy:             84.2935368

- temperature:       480.0000000
  free_energy:       -57.3175845
  entropy:           298.4373159
  heat_capacity:     164.0279771
  energy:             85.9323271

- temperature:       490.0000000
  free_energy:       -60.3189364
  entropy:           301.8223998
  heat_capacity:     164.3117715
  energy:             87.5740395

- temperature:       500.0000000
  free_energy:       -63.3538231
  entropy:           305.1446659
  heat_capacity:     164.5797457
  energy:             89.2185098

- temperature:       510.0000000
  free_energy:       -66.4216276
  entropy:           308.4063002
  heat_capacity:     164.8330353
  energy:             90.8655855

- temperature:       520.0000000
  free_energy:       -69.5217540
  entropy:           311.6093827
  heat_capacity:     165.0726777
  energy:             92.5151250

- temperature:       530.0000000
  free_energy:       -72.6536267
  entropy:           314.7558933
  heat_capacity:     165.2996215
  energy:             94.1669967

- temperature:       540.0000000
  free_energy:       -75.8166896
  entropy:           317.8477178
  heat_capacity:     165.5147359
  energy:             95.8210780

- temperature:       550.0000000
  free_energy:       -79.0104048
  entropy:           320.8866536
  heat_capacity:     165.7188177
  energy:             97.4772547

- temperature:       560.0000000
  free_energy:       -82.2342521
  entropy:           323.8744145
  heat_capacity:     165.9125989
  energy:             99.1354201

- temperature:       570.0000000
  free_energy:       -85.4877279
  entropy:           326.8126360
  heat_capacity:     166.0967526
  energy:            100.7954746

- temperature:       580.0000000
  free_energy:       -88.7703449
  entropy:           329.7028792
  heat_capacity:     166.2718983
  energy:            102.4573251

- temperature:       590.0000000
  free_energy:       -92.0816306
  entropy:           332.5466356
  heat_capacity:     166.4386073
  energy:            104.1208844

- temperature:       600.0000000
  free_energy:       -95.4211274
  entropy:           335.3453304
  heat_capacity:     166.5974067
  energy:            105.7860709

- temperature:       610.0000000
  free_energy:       -98.7883915
  entropy:           338.1003268
  heat_capacity:     166.7487838
  energy:            107.4528078

- temperature:       620.0000000
  free_energy:      -102.1829926
  entropy:           340.8129289
  heat_capacity:     166.8931890
  energy:            109.1210233

- temperature:       630.0000000
  free_energy:      -105.6045130
  entropy:           343.4843853
  heat_capacity:     167.0310397
  energy:            110.7906498

- temperature:       640.0000000
  free_energy:      -109.0525472
  entropy:           346.1158917
  heat_capacity:     167.1627228
  energy:            112.4616235

- temperature:       650.0000000
  free_energy:      -112.5267015
  entropy:           348.7085943
  heat_capacity:     167.2885972
  energy:            114.1338848

- temperature:       660.0000000
  free_energy:      -116.0265934
  entropy:           351.2635918
  heat_capacity:     167.4089965
  energy:            115.8073772

- temperature:       670.0000000
  free_energy:      -119.5518511
  entropy:           353.7819384
  heat_capacity:     167.5242308
  energy:            117.4820476

- temperature:       680.0000000
  free_energy:      -123.1021133
  entropy:           356.2646455
  heat_capacity:     167.6345889
  energy:            119.1578456

- temperature:       690.0000000
  free_energy:      -126.6770285
  entropy:           358.7126847
  heat_capacity:     167.7403396
  energy:            120.8347240

- temperature:       700.0000000
  free_energy:      -130.2762546
  entropy:           361.1269892
  heat_capacity:     167.8417339
  energy:            122.5126379

- temperature:       710.0000000
  free_energy:      -133.8994588
  entropy:           363.5084560
  heat_capacity:     167.9390059
  energy:            124.1915449

- temperature:       720.0000000
  free_energy:      -137.5463171
  entropy:           365.8579474
  heat_capacity:     168.0323743
  energy:            125.8714050

- temperature:       730.0000000
  free_energy:      -141.2165140
  entropy:           368.1762932
  heat_capacity:     168.1220437
  energy:            127.5521801

- temperature:       740.0000000
  free_energy:      -144.9097418
  entropy:           370.4642919
  heat_capacity:     168.2082055
  energy:            129.2338342

- temperature:       750.0000000
  free_energy:      -148.6257012
  entropy:           372.7227124
  heat_capacity:     168.2910390
  energy:            130.9163331

- temperature:       760.0000000
  free_energy:      -152.3641000
  entropy:           374.9522952
  heat_capacity:     168.3707123
  energy:            132.5996444

- temperature:       770.0000000
  free_energy:      -156.1246534
  entropy:           377.1537542
  heat_capacity:     168.4473829
  energy:            134.2837373

- temperature:       780.0000000
  free_energy:      -159.9070836
  entropy:           379.3277771
  heat_capacity:     168.5211990
  energy:            135.9685826

- temperature:       790.0000000
  free_energy:      -163.7111197
  entropy:           381.4750278
  heat_capacity:     168.5922996
  energy:            137.6541523

- temperature:       800.0000000
  free_energy:      -167.5364970
  entropy:           383.5961462
  heat_capacity:     168.6608154
  energy:            139.3404199

- temperature:       810.0000000
  free_energy:      -171.3829575
  entropy:           385.6917505
  heat_capacity:     168.7268695
  energy:            141.0273604

- temperature:       820.0000000
  free_energy:      -175.2502490
  entropy:           387.7624372
  heat_capacity:     168.7905777
  energy:            142.7149495

- temperature:       830.0000000
  free_energy:      -179.1381252
  entropy:           389.8087827
  heat_capacity:     168.8520491
  energy:            144.4031645

- temperature:       840.0000000
  free_energy:      -183.0463454
  entropy:           391.8313438
  heat_capacity:     168.9113867
  energy:            146.0919834

- temperature:       850.0000000
  free_energy:      -186.9746745
  entropy:           393.8306588
  heat_capacity:     168.9686876
  energy:            147.7813854

- temperature:       860.0000000
  free_energy:      -190.9228828
  entropy:           395.8072482
  heat_capacity:     169.0240433
  energy:            149.4713507

- temperature:       870.0000000
  free_energy:      -194.8907454
  entropy:           397.7616155
  heat_capacity:     169.0775405
  energy:            151.1618601

- temperature:       880.0000000
  free_energy:      -198.8780427
  entropy:           399.6942480
  heat_capacity:     169.1292611
  energy:            152.8528955

- temperature:       890.0000000
  free_energy:      -202.8845595
  entropy:           401.6056170
  heat_capacity:     169.1792825
  energy:            154.5444396

- temperature:       900.0000000
  free_energy:      -206.9100857
  entropy:           403.4961794
  heat_capacity:     169.2276778
  energy:            156.2364758

- temperature:       910.0000000
  free_energy:      -210.9544152
  entropy:           405.3663772
  heat_capacity:     169.2745166
  energy:            157.9289880

- temperature:       920.0000000
  free_energy:      -215.0173467
  entropy:           407.2166390
  heat_capacity:     169.3198645
  energy:            159.6219611

- temperature:       930.0000000
  free_energy:      -219.0986829
  entropy:           409.0473801
  heat_capacity:     169.3637839
  energy:            161.3153805

- temperature:       940.0000000
  free_energy:      -223.1982306
  entropy:           410.8590031
  heat_capacity:     169.4063338
  energy:            163.0092322

- temperature:       950.0000000
  free_energy:      -227.3158006
  entropy:           412.6518983
  heat_capacity:     169.4475704
  energy:            164.7035028

- temperature:       960.0000000
  free_energy:      -231.4512074
  entropy:           414.4264447
  heat_capacity:     169.4875469
  energy:            166.3981795

- temperature:       970.0000000
  free_energy:      -235.6042695
  entropy:           416.1830096
  heat_capacity:     169.5263139
  energy:            168.0932497

- temperature:       980.0000000
  free_energy:      -239.7748089
  entropy:           417.9219497
  heat_capacity:     169.5639196
  energy:            169.7887019

- temperature:       990.0000000
  free_energy:      -243.9626509
  entropy:           419.6436115
  heat_capacity:     169.6004097
  energy:            171.4845244

- temperature:      1000.0000000
  free_energy:      -248.1676246
  entropy:           421.3483311
  heat_capacity:     169.6358277
  energy:            173.1807065
