phonopy:
  version: "2.37.1"
  frequency_unit_conversion_factor: 15.633302
  symmetry_tolerance: 1.00000e-05

space_group:
  type: "P-3m1"
  number: 164
  Hall_symbol: "-P 3 2\""

primitive_matrix:
- [  1.000000000000000,  0.000000000000000,  0.000000000000000 ]
- [  0.000000000000000,  1.000000000000000,  0.000000000000000 ]
- [  0.000000000000000,  0.000000000000000,  1.000000000000000 ]

supercell_matrix:
- [   3,   0,   0 ]
- [   0,   3,   0 ]
- [   0,   0,   4 ]

primitive_cell:
  lattice:
  - [     4.663418569506552,     0.000000000000000,     0.000000000000000 ] # a
  - [    -2.331709251893205,     4.038638966875849,     0.000000000000000 ] # b
  - [    -0.000000008833258,     0.000000023615285,     2.989888130215338 ] # c
  points:
  - symbol: Li # 1
    coordinates: [  0.333333337434674,  0.666666672336365,  0.476995816503081 ]
    mass: 6.940000
  - symbol: Li # 2
    coordinates: [  0.666666666218553,  0.333333332383484,  0.523004186899719 ]
    mass: 6.940000
  - symbol: Sn # 3
    coordinates: [  0.999999996470890,  0.999999995342224,  0.999999996394452 ]
    mass: 118.710000
  reciprocal_lattice: # without 2pi
  - [     0.214434965486234,     0.123804082775053,    -0.000000000344330 ] # a*
  - [     0.000000000000000,     0.247608169039573,    -0.000000001955704 ] # b*
  - [     0.000000000000000,     0.000000000000000,     0.334460674262076 ] # c*

unit_cell:
  lattice:
  - [     4.663418569506552,     0.000000000000000,     0.000000000000000 ] # a
  - [    -2.331709251893205,     4.038638966875850,     0.000000000000000 ] # b
  - [    -0.000000008833258,     0.000000023615285,     2.989888130215339 ] # c
  points:
  - symbol: Li # 1
    coordinates: [  0.333333337434674,  0.666666672336365,  0.476995816503081 ]
    mass: 6.940000
    reduced_to: 1
  - symbol: Li # 2
    coordinates: [  0.666666666218553,  0.333333332383484,  0.523004186899719 ]
    mass: 6.940000
    reduced_to: 2
  - symbol: Sn # 3
    coordinates: [  0.999999996470890,  0.999999995342224,  0.999999996394451 ]
    mass: 118.710000
    reduced_to: 3

supercell:
  lattice:
  - [    13.990255708519657,     0.000000000000000,     0.000000000000000 ] # a
  - [    -6.995127755679617,    12.115916900627550,     0.000000000000000 ] # b
  - [    -0.000000035333031,     0.000000094461139,    11.959552520861354 ] # c
  points:
  - symbol: Li # 1
    coordinates: [  0.111111112478225,  0.222222224112122,  0.119248954125770 ]
    mass: 6.940000
    reduced_to: 1
  - symbol: Li # 2
    coordinates: [  0.444444445811558,  0.222222224112122,  0.119248954125770 ]
    mass: 6.940000
    reduced_to: 1
  - symbol: Li # 3
    coordinates: [  0.777777779144891,  0.222222224112122,  0.119248954125770 ]
    mass: 6.940000
    reduced_to: 1
  - symbol: Li # 4
    coordinates: [  0.111111112478225,  0.555555557445455,  0.119248954125770 ]
    mass: 6.940000
    reduced_to: 1
  - symbol: Li # 5
    coordinates: [  0.444444445811558,  0.555555557445455,  0.119248954125770 ]
    mass: 6.940000
    reduced_to: 1
  - symbol: Li # 6
    coordinates: [  0.777777779144891,  0.555555557445455,  0.119248954125770 ]
    mass: 6.940000
    reduced_to: 1
  - symbol: Li # 7
    coordinates: [  0.111111112478225,  0.888888890778788,  0.119248954125770 ]
    mass: 6.940000
    reduced_to: 1
  - symbol: Li # 8
    coordinates: [  0.444444445811558,  0.888888890778788,  0.119248954125770 ]
    mass: 6.940000
    reduced_to: 1
  - symbol: Li # 9
    coordinates: [  0.777777779144891,  0.888888890778788,  0.119248954125770 ]
    mass: 6.940000
    reduced_to: 1
  - symbol: Li # 10
    coordinates: [  0.111111112478225,  0.222222224112122,  0.369248954125770 ]
    mass: 6.940000
    reduced_to: 1
  - symbol: Li # 11
    coordinates: [  0.444444445811558,  0.222222224112122,  0.369248954125770 ]
    mass: 6.940000
    reduced_to: 1
  - symbol: Li # 12
    coordinates: [  0.777777779144891,  0.222222224112122,  0.369248954125770 ]
    mass: 6.940000
    reduced_to: 1
  - symbol: Li # 13
    coordinates: [  0.111111112478225,  0.555555557445455,  0.369248954125770 ]
    mass: 6.940000
    reduced_to: 1
  - symbol: Li # 14
    coordinates: [  0.444444445811558,  0.555555557445455,  0.369248954125770 ]
    mass: 6.940000
    reduced_to: 1
  - symbol: Li # 15
    coordinates: [  0.777777779144891,  0.555555557445455,  0.369248954125770 ]
    mass: 6.940000
    reduced_to: 1
  - symbol: Li # 16
    coordinates: [  0.111111112478225,  0.888888890778788,  0.369248954125770 ]
    mass: 6.940000
    reduced_to: 1
  - symbol: Li # 17
    coordinates: [  0.444444445811558,  0.888888890778788,  0.369248954125770 ]
    mass: 6.940000
    reduced_to: 1
  - symbol: Li # 18
    coordinates: [  0.777777779144891,  0.888888890778788,  0.369248954125770 ]
    mass: 6.940000
    reduced_to: 1
  - symbol: Li # 19
    coordinates: [  0.111111112478225,  0.222222224112122,  0.619248954125770 ]
    mass: 6.940000
    reduced_to: 1
  - symbol: Li # 20
    coordinates: [  0.444444445811558,  0.222222224112122,  0.619248954125770 ]
    mass: 6.940000
    reduced_to: 1
  - symbol: Li # 21
    coordinates: [  0.777777779144891,  0.222222224112122,  0.619248954125770 ]
    mass: 6.940000
    reduced_to: 1
  - symbol: Li # 22
    coordinates: [  0.111111112478225,  0.555555557445455,  0.619248954125770 ]
    mass: 6.940000
    reduced_to: 1
  - symbol: Li # 23
    coordinates: [  0.444444445811558,  0.555555557445455,  0.619248954125770 ]
    mass: 6.940000
    reduced_to: 1
  - symbol: Li # 24
    coordinates: [  0.777777779144891,  0.555555557445455,  0.619248954125770 ]
    mass: 6.940000
    reduced_to: 1
  - symbol: Li # 25
    coordinates: [  0.111111112478225,  0.888888890778788,  0.619248954125770 ]
    mass: 6.940000
    reduced_to: 1
  - symbol: Li # 26
    coordinates: [  0.444444445811558,  0.888888890778788,  0.619248954125770 ]
    mass: 6.940000
    reduced_to: 1
  - symbol: Li # 27
    coordinates: [  0.777777779144891,  0.888888890778788,  0.619248954125770 ]
    mass: 6.940000
    reduced_to: 1
  - symbol: Li # 28
    coordinates: [  0.111111112478225,  0.222222224112122,  0.869248954125770 ]
    mass: 6.940000
    reduced_to: 1
  - symbol: Li # 29
    coordinates: [  0.444444445811558,  0.222222224112122,  0.869248954125770 ]
    mass: 6.940000
    reduced_to: 1
  - symbol: Li # 30
    coordinates: [  0.777777779144891,  0.222222224112122,  0.869248954125770 ]
    mass: 6.940000
    reduced_to: 1
  - symbol: Li # 31
    coordinates: [  0.111111112478225,  0.555555557445455,  0.869248954125770 ]
    mass: 6.940000
    reduced_to: 1
  - symbol: Li # 32
    coordinates: [  0.444444445811558,  0.555555557445455,  0.869248954125770 ]
    mass: 6.940000
    reduced_to: 1
  - symbol: Li # 33
    coordinates: [  0.777777779144891,  0.555555557445455,  0.869248954125770 ]
    mass: 6.940000
    reduced_to: 1
  - symbol: Li # 34
    coordinates: [  0.111111112478225,  0.888888890778788,  0.869248954125770 ]
    mass: 6.940000
    reduced_to: 1
  - symbol: Li # 35
    coordinates: [  0.444444445811558,  0.888888890778788,  0.869248954125770 ]
    mass: 6.940000
    reduced_to: 1
  - symbol: Li # 36
    coordinates: [  0.777777779144891,  0.888888890778788,  0.869248954125770 ]
    mass: 6.940000
    reduced_to: 1
  - symbol: Li # 37
    coordinates: [  0.222222222072851,  0.111111110794495,  0.130751046724930 ]
    mass: 6.940000
    reduced_to: 37
  - symbol: Li # 38
    coordinates: [  0.555555555406184,  0.111111110794495,  0.130751046724930 ]
    mass: 6.940000
    reduced_to: 37
  - symbol: Li # 39
    coordinates: [  0.888888888739518,  0.111111110794495,  0.130751046724930 ]
    mass: 6.940000
    reduced_to: 37
  - symbol: Li # 40
    coordinates: [  0.222222222072851,  0.444444444127828,  0.130751046724930 ]
    mass: 6.940000
    reduced_to: 37
  - symbol: Li # 41
    coordinates: [  0.555555555406184,  0.444444444127828,  0.130751046724930 ]
    mass: 6.940000
    reduced_to: 37
  - symbol: Li # 42
    coordinates: [  0.888888888739518,  0.444444444127828,  0.130751046724930 ]
    mass: 6.940000
    reduced_to: 37
  - symbol: Li # 43
    coordinates: [  0.222222222072851,  0.777777777461161,  0.130751046724930 ]
    mass: 6.940000
    reduced_to: 37
  - symbol: Li # 44
    coordinates: [  0.555555555406184,  0.777777777461161,  0.130751046724930 ]
    mass: 6.940000
    reduced_to: 37
  - symbol: Li # 45
    coordinates: [  0.888888888739518,  0.777777777461161,  0.130751046724930 ]
    mass: 6.940000
    reduced_to: 37
  - symbol: Li # 46
    coordinates: [  0.222222222072851,  0.111111110794495,  0.380751046724930 ]
    mass: 6.940000
    reduced_to: 37
  - symbol: Li # 47
    coordinates: [  0.555555555406184,  0.111111110794495,  0.380751046724930 ]
    mass: 6.940000
    reduced_to: 37
  - symbol: Li # 48
    coordinates: [  0.888888888739518,  0.111111110794495,  0.380751046724930 ]
    mass: 6.940000
    reduced_to: 37
  - symbol: Li # 49
    coordinates: [  0.222222222072851,  0.444444444127828,  0.380751046724930 ]
    mass: 6.940000
    reduced_to: 37
  - symbol: Li # 50
    coordinates: [  0.555555555406184,  0.444444444127828,  0.380751046724930 ]
    mass: 6.940000
    reduced_to: 37
  - symbol: Li # 51
    coordinates: [  0.888888888739518,  0.444444444127828,  0.380751046724930 ]
    mass: 6.940000
    reduced_to: 37
  - symbol: Li # 52
    coordinates: [  0.222222222072851,  0.777777777461161,  0.380751046724930 ]
    mass: 6.940000
    reduced_to: 37
  - symbol: Li # 53
    coordinates: [  0.555555555406184,  0.777777777461161,  0.380751046724930 ]
    mass: 6.940000
    reduced_to: 37
  - symbol: Li # 54
    coordinates: [  0.888888888739518,  0.777777777461161,  0.380751046724930 ]
    mass: 6.940000
    reduced_to: 37
  - symbol: Li # 55
    coordinates: [  0.222222222072851,  0.111111110794495,  0.630751046724930 ]
    mass: 6.940000
    reduced_to: 37
  - symbol: Li # 56
    coordinates: [  0.555555555406184,  0.111111110794495,  0.630751046724930 ]
    mass: 6.940000
    reduced_to: 37
  - symbol: Li # 57
    coordinates: [  0.888888888739518,  0.111111110794495,  0.630751046724930 ]
    mass: 6.940000
    reduced_to: 37
  - symbol: Li # 58
    coordinates: [  0.222222222072851,  0.444444444127828,  0.630751046724930 ]
    mass: 6.940000
    reduced_to: 37
  - symbol: Li # 59
    coordinates: [  0.555555555406184,  0.444444444127828,  0.630751046724930 ]
    mass: 6.940000
    reduced_to: 37
  - symbol: Li # 60
    coordinates: [  0.888888888739518,  0.444444444127828,  0.630751046724930 ]
    mass: 6.940000
    reduced_to: 37
  - symbol: Li # 61
    coordinates: [  0.222222222072851,  0.777777777461161,  0.630751046724930 ]
    mass: 6.940000
    reduced_to: 37
  - symbol: Li # 62
    coordinates: [  0.555555555406184,  0.777777777461161,  0.630751046724930 ]
    mass: 6.940000
    reduced_to: 37
  - symbol: Li # 63
    coordinates: [  0.888888888739518,  0.777777777461161,  0.630751046724930 ]
    mass: 6.940000
    reduced_to: 37
  - symbol: Li # 64
    coordinates: [  0.222222222072851,  0.111111110794495,  0.880751046724930 ]
    mass: 6.940000
    reduced_to: 37
  - symbol: Li # 65
    coordinates: [  0.555555555406184,  0.111111110794495,  0.880751046724930 ]
    mass: 6.940000
    reduced_to: 37
  - symbol: Li # 66
    coordinates: [  0.888888888739518,  0.111111110794495,  0.880751046724930 ]
    mass: 6.940000
    reduced_to: 37
  - symbol: Li # 67
    coordinates: [  0.222222222072851,  0.444444444127828,  0.880751046724930 ]
    mass: 6.940000
    reduced_to: 37
  - symbol: Li # 68
    coordinates: [  0.555555555406184,  0.444444444127828,  0.880751046724930 ]
    mass: 6.940000
    reduced_to: 37
  - symbol: Li # 69
    coordinates: [  0.888888888739518,  0.444444444127828,  0.880751046724930 ]
    mass: 6.940000
    reduced_to: 37
  - symbol: Li # 70
    coordinates: [  0.222222222072851,  0.777777777461161,  0.880751046724930 ]
    mass: 6.940000
    reduced_to: 37
  - symbol: Li # 71
    coordinates: [  0.555555555406184,  0.777777777461161,  0.880751046724930 ]
    mass: 6.940000
    reduced_to: 37
  - symbol: Li # 72
    coordinates: [  0.888888888739518,  0.777777777461161,  0.880751046724930 ]
    mass: 6.940000
    reduced_to: 37
  - symbol: Sn # 73
    coordinates: [  0.333333332156963,  0.333333331780741,  0.249999999098613 ]
    mass: 118.710000
    reduced_to: 73
  - symbol: Sn # 74
    coordinates: [  0.666666665490297,  0.333333331780741,  0.249999999098613 ]
    mass: 118.710000
    reduced_to: 73
  - symbol: Sn # 75
    coordinates: [  0.999999998823630,  0.333333331780741,  0.249999999098613 ]
    mass: 118.710000
    reduced_to: 73
  - symbol: Sn # 76
    coordinates: [  0.333333332156963,  0.666666665114075,  0.249999999098613 ]
    mass: 118.710000
    reduced_to: 73
  - symbol: Sn # 77
    coordinates: [  0.666666665490297,  0.666666665114075,  0.249999999098613 ]
    mass: 118.710000
    reduced_to: 73
  - symbol: Sn # 78
    coordinates: [  0.999999998823630,  0.666666665114075,  0.249999999098613 ]
    mass: 118.710000
    reduced_to: 73
  - symbol: Sn # 79
    coordinates: [  0.333333332156963,  0.999999998447408,  0.249999999098613 ]
    mass: 118.710000
    reduced_to: 73
  - symbol: Sn # 80
    coordinates: [  0.666666665490297,  0.999999998447408,  0.249999999098613 ]
    mass: 118.710000
    reduced_to: 73
  - symbol: Sn # 81
    coordinates: [  0.999999998823630,  0.999999998447408,  0.249999999098613 ]
    mass: 118.710000
    reduced_to: 73
  - symbol: Sn # 82
    coordinates: [  0.333333332156963,  0.333333331780741,  0.499999999098613 ]
    mass: 118.710000
    reduced_to: 73
  - symbol: Sn # 83
    coordinates: [  0.666666665490297,  0.333333331780741,  0.499999999098613 ]
    mass: 118.710000
    reduced_to: 73
  - symbol: Sn # 84
    coordinates: [  0.999999998823630,  0.333333331780741,  0.499999999098613 ]
    mass: 118.710000
    reduced_to: 73
  - symbol: Sn # 85
    coordinates: [  0.333333332156963,  0.666666665114075,  0.499999999098613 ]
    mass: 118.710000
    reduced_to: 73
  - symbol: Sn # 86
    coordinates: [  0.666666665490297,  0.666666665114075,  0.499999999098613 ]
    mass: 118.710000
    reduced_to: 73
  - symbol: Sn # 87
    coordinates: [  0.999999998823630,  0.666666665114075,  0.499999999098613 ]
    mass: 118.710000
    reduced_to: 73
  - symbol: Sn # 88
    coordinates: [  0.333333332156963,  0.999999998447408,  0.499999999098613 ]
    mass: 118.710000
    reduced_to: 73
  - symbol: Sn # 89
    coordinates: [  0.666666665490297,  0.999999998447408,  0.499999999098613 ]
    mass: 118.710000
    reduced_to: 73
  - symbol: Sn # 90
    coordinates: [  0.999999998823630,  0.999999998447408,  0.499999999098613 ]
    mass: 118.710000
    reduced_to: 73
  - symbol: Sn # 91
    coordinates: [  0.333333332156963,  0.333333331780741,  0.749999999098613 ]
    mass: 118.710000
    reduced_to: 73
  - symbol: Sn # 92
    coordinates: [  0.666666665490297,  0.333333331780741,  0.749999999098613 ]
    mass: 118.710000
    reduced_to: 73
  - symbol: Sn # 93
    coordinates: [  0.999999998823630,  0.333333331780741,  0.749999999098613 ]
    mass: 118.710000
    reduced_to: 73
  - symbol: Sn # 94
    coordinates: [  0.333333332156963,  0.666666665114075,  0.749999999098613 ]
    mass: 118.710000
    reduced_to: 73
  - symbol: Sn # 95
    coordinates: [  0.666666665490297,  0.666666665114075,  0.749999999098613 ]
    mass: 118.710000
    reduced_to: 73
  - symbol: Sn # 96
    coordinates: [  0.999999998823630,  0.666666665114075,  0.749999999098613 ]
    mass: 118.710000
    reduced_to: 73
  - symbol: Sn # 97
    coordinates: [  0.333333332156963,  0.999999998447408,  0.749999999098613 ]
    mass: 118.710000
    reduced_to: 73
  - symbol: Sn # 98
    coordinates: [  0.666666665490297,  0.999999998447408,  0.749999999098613 ]
    mass: 118.710000
    reduced_to: 73
  - symbol: Sn # 99
    coordinates: [  0.999999998823630,  0.999999998447408,  0.749999999098613 ]
    mass: 118.710000
    reduced_to: 73
  - symbol: Sn # 100
    coordinates: [  0.333333332156963,  0.333333331780741,  0.999999999098613 ]
    mass: 118.710000
    reduced_to: 73
  - symbol: Sn # 101
    coordinates: [  0.666666665490297,  0.333333331780741,  0.999999999098613 ]
    mass: 118.710000
    reduced_to: 73
  - symbol: Sn # 102
    coordinates: [  0.999999998823630,  0.333333331780741,  0.999999999098613 ]
    mass: 118.710000
    reduced_to: 73
  - symbol: Sn # 103
    coordinates: [  0.333333332156963,  0.666666665114075,  0.999999999098613 ]
    mass: 118.710000
    reduced_to: 73
  - symbol: Sn # 104
    coordinates: [  0.666666665490297,  0.666666665114075,  0.999999999098613 ]
    mass: 118.710000
    reduced_to: 73
  - symbol: Sn # 105
    coordinates: [  0.999999998823630,  0.666666665114075,  0.999999999098613 ]
    mass: 118.710000
    reduced_to: 73
  - symbol: Sn # 106
    coordinates: [  0.333333332156963,  0.999999998447408,  0.999999999098613 ]
    mass: 118.710000
    reduced_to: 73
  - symbol: Sn # 107
    coordinates: [  0.666666665490297,  0.999999998447408,  0.999999999098613 ]
    mass: 118.710000
    reduced_to: 73
  - symbol: Sn # 108
    coordinates: [  0.999999998823630,  0.999999998447408,  0.999999999098613 ]
    mass: 118.710000
    reduced_to: 73

displacements:
- atom:    1
  displacement:
    [   0.0076011757632159,  0.0000000000513226,  0.0064978555706247 ]
  forces:
  - [  -0.0188544504344463, -0.0000540842302144, -0.0087440153583884 ]
  - [  -0.0001047277619364,  0.0000074123963714, -0.0012432234361768 ]
  - [  -0.0000935908465181, -0.0000088952947408, -0.0012523727491498 ]
  - [   0.0000355020165443,  0.0000800956040621, -0.0012496225535870 ]
  - [   0.0000300998799503, -0.0000872211530805, -0.0012460984289646 ]
  - [   0.0000046445056796,  0.0000004784669727, -0.0012311786413193 ]
  - [   0.0000311750918627,  0.0000737709924579, -0.0012451075017452 ]
  - [   0.0000032447278500,  0.0000006081536412, -0.0012310035526752 ]
  - [   0.0000328905880451, -0.0000606393441558, -0.0012507811188698 ]
  - [  -0.0000326161825797, -0.0000008267816156,  0.0018055345863104 ]
  - [  -0.0000431844491686,  0.0002158558927476, -0.0012587569653988 ]
  - [  -0.0000217355645873, -0.0000566246453673, -0.0012364666908979 ]
  - [   0.0000413465313613,  0.0001650405611144, -0.0011693201959133 ]
  - [   0.0001680636778474, -0.0002667695225682, -0.0013284757733345 ]
  - [  -0.0000302025582641,  0.0000002599957156, -0.0012160521000624 ]
  - [   0.0000318698585033, -0.0000876858830452, -0.0011794045567513 ]
  - [  -0.0000371020287275,  0.0000007944181561, -0.0012225396931171 ]
  - [   0.0001790635287762,  0.0000293580815196, -0.0013166926801205 ]
  - [  -0.0000227376094699,  0.0000000509899110, -0.0017145266756415 ]
  - [  -0.0000104761975308,  0.0000188546255231, -0.0012035919353366 ]
  - [  -0.0000095159875855, -0.0000144233927131, -0.0012059547007084 ]
  - [  -0.0000027054920793,  0.0000188320409507, -0.0012075453996658 ]
  - [  -0.0000003422610462, -0.0000221645459533, -0.0012019742280245 ]
  - [   0.0000053627882153,  0.0000001532464466, -0.0012158267199993 ]
  - [  -0.0000042431056499, -0.0000120867043734, -0.0012064278125763 ]
  - [   0.0000037532299757,  0.0000005541369319, -0.0012161172926426 ]
  - [   0.0000002048909664,  0.0000127479434013, -0.0012032240629196 ]
  - [  -0.0000216188054765, -0.0000012742821127,  0.0017590094357729 ]
  - [  -0.0000220846231969,  0.0000631564762443, -0.0012352392077446 ]
  - [  -0.0000408103041991, -0.0002073321957141, -0.0012596175074577 ]
  - [   0.0001624422147870,  0.0002541253343225, -0.0013319253921509 ]
  - [   0.0000464310869575, -0.0001696189865470, -0.0011605881154537 ]
  - [  -0.0000362060964108, -0.0000000484287739, -0.0012223497033119 ]
  - [   0.0001706611365080, -0.0000275559723377, -0.0013205781579018 ]
  - [  -0.0000317655503750,  0.0000013802200556, -0.0012152045965195 ]
  - [   0.0000350754708052,  0.0000868421047926, -0.0011740364134312 ]
  - [   0.0050264839082956, -0.0030724741518497,  0.0012758877128363 ]
  - [   0.0000448515638709, -0.0000014696270227,  0.0012151757255197 ]
  - [   0.0044005862437189,  0.0026893066242337,  0.0006299987435341 ]
  - [  -0.0002755502937362,  0.0003169029951096,  0.0009495727717876 ]
  - [  -0.0000671327579767, -0.0000324714928865,  0.0014512846246362 ]
  - [  -0.0000674389302731,  0.0000331215560436,  0.0014433246105909 ]
  - [  -0.0000017938615429, -0.0000251270830631,  0.0012158192694187 ]
  - [  -0.0000041489329305,  0.0000294540077448,  0.0012142546474934 ]
  - [  -0.0000094085535238,  0.0000004786998034,  0.0014475435018539 ]
  - [  -0.0002661962062120,  0.0000637094490230,  0.0008598025888205 ]
  - [  -0.0000172629952431,  0.0000071097165346,  0.0012254305183887 ]
  - [   0.0000193209853023,  0.0001009760890156,  0.0011948710307479 ]
  - [  -0.0001555730850669, -0.0001638690009713,  0.0010290639474988 ]
  - [  -0.0006486081983894, -0.0003593852743506,  0.0007854402065277 ]
  - [  -0.0001969385484699,  0.0000998182222247,  0.0013162782415748 ]
  - [  -0.0000055273994803,  0.0000088680535555,  0.0012177713215351 ]
  - [   0.0000069137895480, -0.0000129826366901,  0.0012330971658230 ]
  - [  -0.0000237018684857,  0.0002612750977278,  0.0010510757565498 ]
  - [   0.0000102929770947,  0.0000196322798729,  0.0012095719575882 ]
  - [  -0.0000080661848187,  0.0000002132728696,  0.0012213736772537 ]
  - [  -0.0000006956979632, -0.0000272265897365,  0.0011969003826380 ]
  - [   0.0000454568471469,  0.0000069346278906,  0.0012031858786941 ]
  - [  -0.0000213726889342, -0.0000145938247442,  0.0011948691681027 ]
  - [  -0.0000260460656136,  0.0000179745256901,  0.0011911429464817 ]
  - [  -0.0000030263215649,  0.0000048018991947,  0.0012208297848701 ]
  - [  -0.0000021810772068, -0.0000027548521757,  0.0012218542397022 ]
  - [   0.0000067908727033, -0.0000010151416063,  0.0011931359767914 ]
  - [   0.0000066128559411, -0.0000841422006488,  0.0012430064380169 ]
  - [   0.0000068428926170, -0.0000042458996177,  0.0012228228151798 ]
  - [  -0.0002878010272980, -0.0000854711979628,  0.0008976198732853 ]
  - [  -0.0001396877487423,  0.0001691188663244,  0.0010704835876822 ]
  - [  -0.0002410283486824, -0.0001182211562991,  0.0013144807890058 ]
  - [  -0.0006492008687928,  0.0003553996793926,  0.0008414993062615 ]
  - [   0.0000066276406869, -0.0000001601874828,  0.0012268871068954 ]
  - [  -0.0000001578009687,  0.0000027809292078,  0.0012192986905575 ]
  - [  -0.0000323644635500, -0.0002355352044106,  0.0010785572230816 ]
  - [   0.0032398486509919,  0.0017306787194684,  0.0004272423684597 ]
  - [   0.0000791522907093, -0.0000128956744447, -0.0000120736658573 ]
  - [   0.0016810627421364, -0.0008220782037824,  0.0000480152666569 ]
  - [  -0.0000249709701166,  0.0001184535794891,  0.0000217370688915 ]
  - [  -0.0000071581453085,  0.0000472483225167, -0.0000415965914726 ]
  - [   0.0000126571394503, -0.0000380803248845,  0.0000179745256901 ]
  - [   0.0000403450976592, -0.0000387793406844, -0.0001372247934341 ]
  - [  -0.0001704438473098, -0.0000848957570270,  0.0001807212829590 ]
  - [   0.0002500780392438, -0.0008523802971467,  0.0002167969942093 ]
  - [  -0.0000348624307662,  0.0000007671769708,  0.0009205862879753 ]
  - [   0.0000360009726137, -0.0000119965989143,  0.0000141337513924 ]
  - [   0.0000039904844016, -0.0000247703865170, -0.0001704171299934 ]
  - [  -0.0000074471872722,  0.0000100948382169, -0.0000032037496567 ]
  - [  -0.0000058980658650,  0.0000221304362640,  0.0000231191515923 ]
  - [   0.0000112901907414, -0.0000132562126964,  0.0000056549906731 ]
  - [   0.0000263431775238, -0.0000206534750760, -0.0000089406967163 ]
  - [   0.0000059309368226,  0.0000071933027357,  0.0000008791685104 ]
  - [  -0.0000377644755645,  0.0000207836274058,  0.0003758966922760 ]
  - [   0.0000039818696678,  0.0000176270259544, -0.0002220235764980 ]
  - [   0.0000302103580907,  0.0000122578348964,  0.0000126697123051 ]
  - [  -0.0000471208477393,  0.0000116897281259,  0.0010004378855228 ]
  - [  -0.0000036173560147,  0.0000000603031367, -0.0000117123126984 ]
  - [   0.0000117151066661,  0.0000084655475803,  0.0000009499490261 ]
  - [  -0.0000108724925667, -0.0000221010413952,  0.0000242292881012 ]
  - [   0.0000117456029329, -0.0000099559547380, -0.0000015497207642 ]
  - [   0.0000103023976408,  0.0000078320736066, -0.0000200569629669 ]
  - [  -0.0000273570331046, -0.0000303481938317,  0.0003883689641953 ]
  - [   0.0022187475115061,  0.0011460017412901, -0.0000657886266708 ]
  - [   0.0000718487426639,  0.0000158939510584, -0.0000156834721565 ]
  - [   0.0044859508052468, -0.0024412684142590,  0.0010320730507374 ]
  - [  -0.0000131558626890, -0.0001173708587885,  0.0000495314598083 ]
  - [   0.0000128541141748,  0.0000316202640533,  0.0000168681144714 ]
  - [  -0.0000163745135069, -0.0000500082969666, -0.0000485479831696 ]
  - [  -0.0001374222338200,  0.0000714033376426,  0.0001679509878159 ]
  - [   0.0000617671757936,  0.0000438985880464, -0.0000680088996887 ]
  - [   0.0002470072358847,  0.0013667969033122,  0.0005091130733490 ]
- atom:    1
  displacement:
    [  -0.0076011757632159, -0.0000000000513226, -0.0064978555706247 ]
  forces:
  - [   0.0188662689179182, -0.0000537368468940,  0.0063087660819292 ]
  - [   0.0000978938041953, -0.0000063083134592, -0.0011981111019850 ]
  - [   0.0000954303832259,  0.0000098280142993, -0.0011912593618035 ]
  - [  -0.0000348985195160, -0.0000821910798550, -0.0011949799954891 ]
  - [  -0.0000292251352221,  0.0000843389425427, -0.0011945515871048 ]
  - [  -0.0000012398231775,  0.0000004320172593, -0.0012118034064770 ]
  - [  -0.0000325953587890, -0.0000677481293678, -0.0011983513832092 ]
  - [  -0.0000026226043701,  0.0000004870817065, -0.0012116506695747 ]
  - [  -0.0000332370400429,  0.0000665877014399, -0.0011912621557713 ]
  - [   0.0000235158731812, -0.0000007112976164, -0.0041995607316494 ]
  - [   0.0000398564734496, -0.0002134756650776, -0.0011838506907225 ]
  - [   0.0000181124687515,  0.0000559431500733, -0.0012053167447448 ]
  - [  -0.0000401483848691, -0.0001649426849326, -0.0012741237878799 ]
  - [  -0.0001663342118263,  0.0002585790934972, -0.0011174306273460 ]
  - [   0.0000336938537657,  0.0000002513758659, -0.0012273043394089 ]
  - [  -0.0000296253710985,  0.0000886814668775, -0.0012624375522137 ]
  - [   0.0000377539545298,  0.0000008009374142, -0.0012196265161037 ]
  - [  -0.0001778937876225, -0.0000262502580881, -0.0011275187134743 ]
  - [   0.0000238837019424, -0.0000000204890966, -0.0007277345284820 ]
  - [   0.0000092922882686, -0.0000185766257346, -0.0012393957003951 ]
  - [   0.0000067588753154,  0.0000142557546496, -0.0012376382946968 ]
  - [   0.0000037457793951, -0.0000187880359590, -0.0012357663363218 ]
  - [   0.0000002502929419,  0.0000230271834880, -0.0012413039803505 ]
  - [  -0.0000017231795937, -0.0000000653815206, -0.0012274142354727 ]
  - [   0.0000039488077164,  0.0000134836882353, -0.0012367255985737 ]
  - [  -0.0000030733644962,  0.0000004386529326, -0.0012278594076633 ]
  - [  -0.0000010281801224, -0.0000112308189273, -0.0012404918670654 ]
  - [   0.0000340355763910, -0.0000012225937098, -0.0042455084621906 ]
  - [   0.0000206732820516, -0.0000640817452222, -0.0012072324752808 ]
  - [   0.0000391698631574,  0.0002097112592310, -0.0011814385652542 ]
  - [  -0.0001629004254937, -0.0002617351710796, -0.0011058263480663 ]
  - [  -0.0000464832410216,  0.0001688180491328, -0.0012805424630642 ]
  - [   0.0000388184562325,  0.0000001322478056, -0.0012195557355881 ]
  - [  -0.0001723244786263,  0.0000315438956022, -0.0011196918785572 ]
  - [   0.0000320710241795,  0.0000012703239918, -0.0012264400720596 ]
  - [  -0.0000378564000130, -0.0000849608331919, -0.0012686140835285 ]
  - [  -0.0049672564491630,  0.0030162706971169,  0.0011406559497118 ]
  - [  -0.0000426974147558,  0.0000006882473826,  0.0012278547510505 ]
  - [  -0.0044346549548209, -0.0027306242845953,  0.0018487926572561 ]
  - [   0.0002761414507404, -0.0003519356250763,  0.0014909664168954 ]
  - [   0.0000621653161943,  0.0000315979123116,  0.0009959386661649 ]
  - [   0.0000674407929182, -0.0000340398401022,  0.0009944541379809 ]
  - [   0.0000029822804208,  0.0000280719250441,  0.0012264624238014 ]
  - [   0.0000042140823098, -0.0000258982181549,  0.0012292675673962 ]
  - [   0.0000091868823802,  0.0000039692968130,  0.0009955205023289 ]
  - [   0.0002630613744259, -0.0000596451573074,  0.0015758462250233 ]
  - [   0.0000204406678677, -0.0000076987780631,  0.0012175403535366 ]
  - [  -0.0000198238994926, -0.0001038164991769,  0.0012457035481930 ]
  - [   0.0001600711402716,  0.0001644287258387,  0.0014125825837255 ]
  - [   0.0006450500222854,  0.0003605620004237,  0.0016570799052715 ]
  - [   0.0001916613546200, -0.0000973595306277,  0.0011290740221739 ]
  - [   0.0000064851483330, -0.0000060200691223,  0.0012251064181328 ]
  - [  -0.0000068177469075,  0.0000167042016983,  0.0012102052569389 ]
  - [   0.0000232277088799, -0.0002613011747599,  0.0013931877911091 ]
  - [  -0.0000107930973172, -0.0000203493982553,  0.0012320196256042 ]
  - [   0.0000104056671262, -0.0000006575137377,  0.0012204553931952 ]
  - [   0.0000012037344277,  0.0000258397631114,  0.0012459233403206 ]
  - [  -0.0000446551312052, -0.0000062286853790,  0.0012388760223985 ]
  - [   0.0000200418289751,  0.0000157095491886,  0.0012468891218305 ]
  - [   0.0000226099509746, -0.0000166874378920,  0.0012516519054770 ]
  - [   0.0000035939847294, -0.0000020954757929,  0.0012208819389343 ]
  - [   0.0000024595867671,  0.0000051297247410,  0.0012198500335217 ]
  - [  -0.0000043718946472,  0.0000030994415283,  0.0012493096292019 ]
  - [  -0.0000060051679611,  0.0000828197225928,  0.0012036934494972 ]
  - [  -0.0000052023679018,  0.0000033797696233,  0.0012208670377731 ]
  - [   0.0002826356794685,  0.0000845380127430,  0.0015406608581543 ]
  - [   0.0001367759687128, -0.0001677167601883,  0.0013725794851780 ]