# Thermal properties / unit cell (natom)

unit:
  temperature:   K
  free_energy:   kJ/mol
  entropy:       J/K/mol
  heat_capacity: J/K/mol

natom: 11   
cutoff_frequency: 0.00000
num_modes: 169884
num_integrated_modes: 169884

zero_point_energy:      43.6719786

thermal_properties:
- temperature:         0.0000000
  free_energy:        43.6719786
  entropy:             0.0000000
  heat_capacity:       0.0000000
  energy:             43.6719786

- temperature:        10.0000000
  free_energy:        43.6692173
  entropy:             0.9762933
  heat_capacity:       2.9817812
  energy:             43.6789802

- temperature:        20.0000000
  free_energy:        43.6343963
  entropy:             6.9212713
  heat_capacity:      16.9914425
  energy:             43.7728217

- temperature:        30.0000000
  free_energy:        43.5173176
  entropy:            16.9227640
  heat_capacity:      33.2975307
  energy:             44.0250005

- temperature:        40.0000000
  free_energy:        43.2905383
  entropy:            28.5970673
  heat_capacity:      48.4001460
  energy:             44.4344210

- temperature:        50.0000000
  free_energy:        42.9431737
  entropy:            40.9530585
  heat_capacity:      62.8445549
  energy:             44.9908267

- temperature:        60.0000000
  free_energy:        42.4702340
  entropy:            53.6878226
  heat_capacity:      77.3253770
  energy:             45.6915033

- temperature:        70.0000000
  free_energy:        41.8684695
  entropy:            66.7074091
  heat_capacity:      91.9892640
  energy:             46.5379881

- temperature:        80.0000000
  free_energy:        41.1353506
  entropy:            79.9469152
  heat_capacity:     106.5942532
  energy:             47.5311038

- temperature:        90.0000000
  free_energy:        40.2690622
  entropy:            93.3267131
  heat_capacity:     120.7792240
  energy:             48.6684664

- temperature:       100.0000000
  free_energy:        39.2686523
  entropy:           106.7557736
  heat_capacity:     134.2303880
  energy:             49.9442296

- temperature:       110.0000000
  free_energy:        38.1340840
  entropy:           120.1440163
  heat_capacity:     146.7406381
  energy:             51.3499258

- temperature:       120.0000000
  free_energy:        36.8661761
  entropy:           133.4115164
  heat_capacity:     158.2082971
  energy:             52.8755580

- temperature:       130.0000000
  free_energy:        35.4664760
  entropy:           146.4928188
  heat_capacity:     168.6129649
  energy:             54.5105425

- temperature:       140.0000000
  free_energy:        33.9371094
  entropy:           159.3376686
  heat_capacity:     177.9883710
  energy:             56.2443830

- temperature:       150.0000000
  free_energy:        32.2806332
  entropy:           171.9097484
  heat_capacity:     186.3999426
  energy:             58.0670955

- temperature:       160.0000000
  free_energy:        30.4999064
  entropy:           184.1845767
  heat_capacity:     193.9286908
  energy:             59.9694386

- temperature:       170.0000000
  free_energy:        28.5979830
  entropy:           196.1472376
  heat_capacity:     200.6606329
  energy:             61.9430134

- temperature:       180.0000000
  free_energy:        26.5780276
  entropy:           207.7902788
  heat_capacity:     206.6803571
  energy:             63.9802778

- temperature:       190.0000000
  free_energy:        24.4432493
  entropy:           219.1119118
  heat_capacity:     212.0674349
  energy:             66.0745125

- temperature:       200.0000000
  free_energy:        22.1968531
  entropy:           230.1145407
  heat_capacity:     216.8946783
  energy:             68.2197612

- temperature:       210.0000000
  free_energy:        19.8420040
  entropy:           240.8035952
  heat_capacity:     221.2275346
  energy:             70.4107590

- temperature:       220.0000000
  free_energy:        17.3818014
  entropy:           251.1866233
  heat_capacity:     225.1241471
  energy:             72.6428585

- temperature:       230.0000000
  free_energy:        14.8192618
  entropy:           261.2725981
  heat_capacity:     228.6357777
  energy:             74.9119593

- temperature:       240.0000000
  free_energy:        12.1573068
  entropy:           271.0713941
  heat_capacity:     231.8074032
  energy:             77.2144414

- temperature:       250.0000000
  free_energy:         9.3987566
  entropy:           280.5933968
  heat_capacity:     234.6783729
  energy:             79.5471058

- temperature:       260.0000000
  free_energy:         6.5463261
  entropy:           289.8492138
  heat_capacity:     237.2830624
  energy:             81.9071217

- temperature:       270.0000000
  free_energy:         3.6026242
  entropy:           298.8494657
  heat_capacity:     239.6514885
  energy:             84.2919799

- temperature:       280.0000000
  free_energy:         0.5701537
  entropy:           307.6046356
  heat_capacity:     241.8098698
  energy:             86.6994517

- temperature:       290.0000000
  free_energy:        -2.5486858
  entropy:           316.1249643
  heat_capacity:     243.7811266
  energy:             89.1275538

- temperature:       300.0000000
  free_energy:        -5.7515959
  entropy:           324.4203784
  heat_capacity:     245.5853203
  energy:             91.5745176

- temperature:       310.0000000
  free_energy:        -9.0363756
  entropy:           332.5004445
  heat_capacity:     247.2400370
  energy:             94.0387622

- temperature:       320.0000000
  free_energy:       -12.4009176
  entropy:           340.3743418
  heat_capacity:     248.7607199
  energy:             96.5188718

- temperature:       330.0000000
  free_energy:       -15.8432045
  entropy:           348.0508479
  heat_capacity:     250.1609552
  energy:             99.0135753

- temperature:       340.0000000
  free_energy:       -19.3613045
  entropy:           355.5383353
  heat_capacity:     251.4527200
  energy:            101.5217295

- temperature:       350.0000000
  free_energy:       -22.9533677
  entropy:           362.8447751
  heat_capacity:     252.6465935
  energy:            104.0423035

- temperature:       360.0000000
  free_energy:       -26.6176218
  entropy:           369.9777451
  heat_capacity:     253.7519404
  energy:            106.5743664

- temperature:       370.0000000
  free_energy:       -30.3523684
  entropy:           376.9444419
  heat_capacity:     254.7770670
  energy:            109.1170751

- temperature:       380.0000000
  free_energy:       -34.1559792
  entropy:           383.7516954
  heat_capacity:     255.7293567
  energy:            111.6696650

- temperature:       390.0000000
  free_energy:       -38.0268925
  entropy:           390.4059844
  heat_capacity:     256.6153860
  energy:            114.2314414

- temperature:       400.0000000
  free_energy:       -41.9636096
  entropy:           396.9134527
  heat_capacity:     257.4410247
  energy:            116.8017715

- temperature:       410.0000000
  free_energy:       -45.9646916
  entropy:           403.2799262
  heat_capacity:     258.2115224
  energy:            119.3800782

- temperature:       420.0000000
  free_energy:       -50.0287566
  entropy:           409.5109296
  heat_capacity:     258.9315834
  energy:            121.9658339

- temperature:       430.0000000
  free_energy:       -54.1544761
  entropy:           415.6117022
  heat_capacity:     259.6054319
  energy:            124.5585558

- temperature:       440.0000000
  free_energy:       -58.3405731
  entropy:           421.5872143
  heat_capacity:     260.2368675
  energy:            127.1578012

- temperature:       450.0000000
  free_energy:       -62.5858186
  entropy:           427.4421820
  heat_capacity:     260.8293150
  energy:            129.7631633

- temperature:       460.0000000
  free_energy:       -66.8890299
  entropy:           433.1810820
  heat_capacity:     261.3858664
  energy:            132.3742679

- temperature:       470.0000000
  free_energy:       -71.2490676
  entropy:           438.8081656
  heat_capacity:     261.9093188
  energy:            134.9907703

- temperature:       480.0000000
  free_energy:       -75.6648339
  entropy:           444.3274715
  heat_capacity:     262.4022062
  energy:            137.6123524

- temperature:       490.0000000
  free_energy:       -80.1352706
  entropy:           449.7428383
  heat_capacity:     262.8668286
  energy:            140.2387202

- temperature:       500.0000000
  free_energy:       -84.6593564
  entropy:           455.0579163
  heat_capacity:     263.3052769
  energy:            142.8696017

- temperature:       510.0000000
  free_energy:       -89.2361062
  entropy:           460.2761785
  heat_capacity:     263.7194549
  energy:            145.5047449

- temperature:       520.0000000
  free_energy:       -93.8645683
  entropy:           465.4009309
  heat_capacity:     264.1110989
  energy:            148.1439157

- temperature:       530.0000000
  free_energy:       -98.5438236
  entropy:           470.4353220
  heat_capacity:     264.4817945
  energy:            150.7868970

- temperature:       540.0000000
  free_energy:      -103.2729836
  entropy:           475.3823522
  heat_capacity:     264.8329920
  energy:            153.4334866

- temperature:       550.0000000
  free_energy:      -108.0511890
  entropy:           480.2448824
  heat_capacity:     265.1660201
  energy:            156.0834963

- temperature:       560.0000000
  free_energy:      -112.8776087
  entropy:           485.0256414
  heat_capacity:     265.4820972
  energy:            158.7367505

- temperature:       570.0000000
  free_energy:      -117.7514380
  entropy:           489.7272341
  heat_capacity:     265.7823425
  energy:            161.3930855

- temperature:       580.0000000
  free_energy:      -122.6718978
  entropy:           494.3521480
  heat_capacity:     266.0677854
  energy:            164.0523481

- temperature:       590.0000000
  free_energy:      -127.6382333
  entropy:           498.9027598
  heat_capacity:     266.3393737
  energy:            166.7143950

- temperature:       600.0000000
  free_energy:      -132.6497129
  entropy:           503.3813419
  heat_capacity:     266.5979815
  energy:            169.3790923

- temperature:       610.0000000
  free_energy:      -137.7056273
  entropy:           507.7900678
  heat_capacity:     266.8444154
  energy:            172.0463141

- temperature:       620.0000000
  free_energy:      -142.8052883
  entropy:           512.1310174
  heat_capacity:     267.0794211
  energy:            174.7159425

- temperature:       630.0000000
  free_energy:      -147.9480283
  entropy:           516.4061826
  heat_capacity:     267.3036884
  energy:            177.3878667

- temperature:       640.0000000
  free_energy:      -153.1331991
  entropy:           520.6174713
  heat_capacity:     267.5178566
  energy:            180.0619826

- temperature:       650.0000000
  free_energy:      -158.3601709
  entropy:           524.7667125
  heat_capacity:     267.7225181
  energy:            182.7381922

- temperature:       660.0000000
  free_energy:      -163.6283323
  entropy:           528.8556598
  heat_capacity:     267.9182231
  energy:            185.4164031

- temperature:       670.0000000
  free_energy:      -168.9370888
  entropy:           532.8859959
  heat_capacity:     268.1054828
  energy:            188.0965285

- temperature:       680.0000000
  free_energy:      -174.2858623
  entropy:           536.8593360
  heat_capacity:     268.2847728
  energy:            190.7784862

- temperature:       690.0000000
  free_energy:      -179.6740907
  entropy:           540.7772312
  heat_capacity:     268.4565357
  energy:            193.4621989

- temperature:       700.0000000
  free_energy:      -185.1012271
  entropy:           544.6411718
  heat_capacity:     268.6211843
  energy:            196.1475932

- temperature:       710.0000000
  free_energy:      -190.5667390
  entropy:           548.4525904
  heat_capacity:     268.7791035
  energy:            198.8346001

- temperature:       720.0000000
  free_energy:      -196.0701084
  entropy:           552.2128645
  heat_capacity:     268.9306528
  energy:            201.5231541

- temperature:       730.0000000
  free_energy:      -201.6108303
  entropy:           555.9233196
  heat_capacity:     269.0761680
  energy:            204.2131931

- temperature:       740.0000000
  free_energy:      -207.1884130
  entropy:           559.5852315
  heat_capacity:     269.2159634
  energy:            206.9046584

- temperature:       750.0000000
  free_energy:      -212.8023772
  entropy:           563.1998286
  heat_capacity:     269.3503330
  energy:            209.5974942

- temperature:       760.0000000
  free_energy:      -218.4522558
  entropy:           566.7682942
  heat_capacity:     269.4795526
  energy:            212.2916478

- temperature:       770.0000000
  free_energy:      -224.1375931
  entropy:           570.2917690
  heat_capacity:     269.6038804
  energy:            214.9870690

- temperature:       780.0000000
  free_energy:      -229.8579449
  entropy:           573.7713523
  heat_capacity:     269.7235589
  energy:            217.6837100

- temperature:       790.0000000
  free_energy:      -235.6128774
  entropy:           577.2081048
  heat_capacity:     269.8388159
  energy:            220.3815254

- temperature:       800.0000000
  free_energy:      -241.4019676
  entropy:           580.6030498
  heat_capacity:     269.9498655
  energy:            223.0804723

- temperature:       810.0000000
  free_energy:      -247.2248023
  entropy:           583.9571750
  heat_capacity:     270.0569088
  energy:            225.7805094

- temperature:       820.0000000
  free_energy:      -253.0809782
  entropy:           587.2714341
  heat_capacity:     270.1601355
  energy:            228.4815977

- temperature:       830.0000000
  free_energy:      -258.9701012
  entropy:           590.5467484
  heat_capacity:     270.2597238
  energy:            231.1837000

- temperature:       840.0000000
  free_energy:      -264.8917863
  entropy:           593.7840083
  heat_capacity:     270.3558421
  energy:            233.8867806

- temperature:       850.0000000
  free_energy:      -270.8456574
  entropy:           596.9840743
  heat_capacity:     270.4486489
  energy:            236.5908058

- temperature:       860.0000000
  free_energy:      -276.8313466
  entropy:           600.1477787
  heat_capacity:     270.5382940
  energy:            239.2957431

- temperature:       870.0000000
  free_energy:      -282.8484944
  entropy:           603.2759265
  heat_capacity:     270.6249187
  energy:            242.0015616

- temperature:       880.0000000
  free_energy:      -288.8967492
  entropy:           606.3692966
  heat_capacity:     270.7086567
  energy:            244.7082318

- temperature:       890.0000000
  free_energy:      -294.9757670
  entropy:           609.4286432
  heat_capacity:     270.7896342
  energy:            247.4157255

- temperature:       900.0000000
  free_energy:      -301.0852111
  entropy:           612.4546965
  heat_capacity:     270.8679708
  energy:            250.1240157

- temperature:       910.0000000
  free_energy:      -307.2247523
  entropy:           615.4481635
  heat_capacity:     270.9437796
  energy:            252.8330765

- temperature:       920.0000000
  free_energy:      -313.3940681
  entropy:           618.4097296
  heat_capacity:     271.0171679
  energy:            255.5428832

- temperature:       930.0000000
  free_energy:      -319.5928428
  entropy:           621.3400590
  heat_capacity:     271.0882371
  energy:            258.2534121

- temperature:       940.0000000
  free_energy:      -325.8207673
  entropy:           624.2397955
  heat_capacity:     271.1570836
  energy:            260.9646406

- temperature:       950.0000000
  free_energy:      -332.0775388
  entropy:           627.1095637
  heat_capacity:     271.2237988
  energy:            263.6765467

- temperature:       960.0000000
  free_energy:      -338.3628607
  entropy:           629.9499691
  heat_capacity:     271.2884695
  energy:            266.3891097

- temperature:       970.0000000
  free_energy:      -344.6764422
  entropy:           632.7615998
  heat_capacity:     271.3511780
  energy:            269.1023096

- temperature:       980.0000000
  free_energy:      -351.0179986
  entropy:           635.5450262
  heat_capacity:     271.4120027
  energy:            271.8161270

- temperature:       990.0000000
  free_energy:      -357.3872506
  entropy:           638.3008022
  heat_capacity:     271.4710180
  energy:            274.5305436

- temperature:      1000.0000000
  free_energy:      -363.7839243
  entropy:           641.0294659
  heat_capacity:     271.5282948
  energy:            277.2455416
