phonopy:
  version: "2.37.1"
  frequency_unit_conversion_factor: 15.633302
  symmetry_tolerance: 1.00000e-05

space_group:
  type: "R-3m"
  number: 166
  Hall_symbol: "-R 3 2\""

primitive_matrix:
- [  0.000000000000000, -1.000000000000000, -0.000000000000000 ]
- [ -1.000000000000000, -0.000000000000000, -0.000000000000000 ]
- [ -0.000000000000000, -0.000000000000000, -1.000000000000000 ]

supercell_matrix:
- [   2,   0,   0 ]
- [   0,   2,   0 ]
- [   0,   0,   2 ]

primitive_cell:
  lattice:
  - [    -2.790870861746205,    -4.522976267155779,    -0.000000000000000 ] # a
  - [    -5.314722393530444,    -0.000000000000000,    -0.000000000000000 ] # b
  - [    -2.790870716309881,    -1.557325181955458,    -4.246416293995454 ] # c
  points:
  - symbol: Li # 1
    coordinates: [  0.110957655392715,  0.110957656251741,  0.110957672681143 ]
    mass: 6.940000
  - symbol: Li # 2
    coordinates: [  0.889042328059025,  0.889042338997116,  0.889042340319353 ]
    mass: 6.940000
  - symbol: Sn # 3
    coordinates: [  0.328391306186582,  0.328391268556102,  0.328391286408643 ]
    mass: 118.710000
  - symbol: Sn # 4
    coordinates: [  0.671608710236318,  0.671608736093755,  0.671608700645556 ]
    mass: 118.710000
  reciprocal_lattice: # without 2pi
  - [     0.000000000000000,    -0.221093355554757,     0.081083489307283 ] # a*
  - [    -0.188156582029061,     0.116100702549316,     0.081083465045565 ] # b*
  - [     0.000000000000000,     0.000000000000000,    -0.235492690957791 ] # c*

unit_cell:
  lattice:
  - [     5.314722393530443,     0.000000000000000,     0.000000000000000 ] # a
  - [     2.790870861746206,     4.522976267155779,     0.000000000000000 ] # b
  - [     2.790870716309879,     1.557325181955456,     4.246416293995453 ] # c
  points:
  - symbol: Li # 1
    coordinates: [  0.889042343748259,  0.889042344607285,  0.889042327318858 ]
    mass: 6.940000
    reduced_to: 1
  - symbol: Li # 2
    coordinates: [  0.110957661002884,  0.110957671940975,  0.110957659680647 ]
    mass: 6.940000
    reduced_to: 2
  - symbol: Sn # 3
    coordinates: [  0.671608731443898,  0.671608693813418,  0.671608713591357 ]
    mass: 118.710000
    reduced_to: 3
  - symbol: Sn # 4
    coordinates: [  0.328391263906245,  0.328391289763682,  0.328391299354444 ]
    mass: 118.710000
    reduced_to: 4

supercell:
  lattice:
  - [    10.629444787060885,     0.000000000000000,     0.000000000000000 ] # a
  - [     5.581741723492413,     9.045952534311558,     0.000000000000000 ] # b
  - [     5.581741432619758,     3.114650363910912,     8.492832587990906 ] # c
  points:
  - symbol: Li # 1
    coordinates: [  0.444521171874129,  0.444521172303643,  0.444521163659429 ]
    mass: 6.940000
    reduced_to: 1
  - symbol: Li # 2
    coordinates: [  0.944521171874129,  0.444521172303643,  0.444521163659429 ]
    mass: 6.940000
    reduced_to: 1
  - symbol: Li # 3
    coordinates: [  0.444521171874129,  0.944521172303643,  0.444521163659429 ]
    mass: 6.940000
    reduced_to: 1
  - symbol: Li # 4
    coordinates: [  0.944521171874129,  0.944521172303643,  0.444521163659429 ]
    mass: 6.940000
    reduced_to: 1
  - symbol: Li # 5
    coordinates: [  0.444521171874129,  0.444521172303643,  0.944521163659429 ]
    mass: 6.940000
    reduced_to: 1
  - symbol: Li # 6
    coordinates: [  0.944521171874129,  0.444521172303643,  0.944521163659429 ]
    mass: 6.940000
    reduced_to: 1
  - symbol: Li # 7
    coordinates: [  0.444521171874129,  0.944521172303643,  0.944521163659429 ]
    mass: 6.940000
    reduced_to: 1
  - symbol: Li # 8
    coordinates: [  0.944521171874129,  0.944521172303643,  0.944521163659429 ]
    mass: 6.940000
    reduced_to: 1
  - symbol: Li # 9
    coordinates: [  0.055478830501442,  0.055478835970487,  0.055478829840324 ]
    mass: 6.940000
    reduced_to: 9
  - symbol: Li # 10
    coordinates: [  0.555478830501442,  0.055478835970487,  0.055478829840324 ]
    mass: 6.940000
    reduced_to: 9
  - symbol: Li # 11
    coordinates: [  0.055478830501442,  0.555478835970487,  0.055478829840324 ]
    mass: 6.940000
    reduced_to: 9
  - symbol: Li # 12
    coordinates: [  0.555478830501442,  0.555478835970487,  0.055478829840324 ]
    mass: 6.940000
    reduced_to: 9
  - symbol: Li # 13
    coordinates: [  0.055478830501442,  0.055478835970487,  0.555478829840324 ]
    mass: 6.940000
    reduced_to: 9
  - symbol: Li # 14
    coordinates: [  0.555478830501442,  0.055478835970487,  0.555478829840324 ]
    mass: 6.940000
    reduced_to: 9
  - symbol: Li # 15
    coordinates: [  0.055478830501442,  0.555478835970487,  0.555478829840324 ]
    mass: 6.940000
    reduced_to: 9
  - symbol: Li # 16
    coordinates: [  0.555478830501442,  0.555478835970487,  0.555478829840324 ]
    mass: 6.940000
    reduced_to: 9
  - symbol: Sn # 17
    coordinates: [  0.335804365721949,  0.335804346906709,  0.335804356795679 ]
    mass: 118.710000
    reduced_to: 17
  - symbol: Sn # 18
    coordinates: [  0.835804365721949,  0.335804346906709,  0.335804356795679 ]
    mass: 118.710000
    reduced_to: 17
  - symbol: Sn # 19
    coordinates: [  0.335804365721949,  0.835804346906709,  0.335804356795679 ]
    mass: 118.710000
    reduced_to: 17
  - symbol: Sn # 20
    coordinates: [  0.835804365721949,  0.835804346906709,  0.335804356795679 ]
    mass: 118.710000
    reduced_to: 17
  - symbol: Sn # 21
    coordinates: [  0.335804365721949,  0.335804346906709,  0.835804356795679 ]
    mass: 118.710000
    reduced_to: 17
  - symbol: Sn # 22
    coordinates: [  0.835804365721949,  0.335804346906709,  0.835804356795679 ]
    mass: 118.710000
    reduced_to: 17
  - symbol: Sn # 23
    coordinates: [  0.335804365721949,  0.835804346906709,  0.835804356795679 ]
    mass: 118.710000
    reduced_to: 17
  - symbol: Sn # 24
    coordinates: [  0.835804365721949,  0.835804346906709,  0.835804356795679 ]
    mass: 118.710000
    reduced_to: 17
  - symbol: Sn # 25
    coordinates: [  0.164195631953122,  0.164195644881841,  0.164195649677222 ]
    mass: 118.710000
    reduced_to: 25
  - symbol: Sn # 26
    coordinates: [  0.664195631953122,  0.164195644881841,  0.164195649677222 ]
    mass: 118.710000
    reduced_to: 25
  - symbol: Sn # 27
    coordinates: [  0.164195631953122,  0.664195644881841,  0.164195649677222 ]
    mass: 118.710000
    reduced_to: 25
  - symbol: Sn # 28
    coordinates: [  0.664195631953122,  0.664195644881841,  0.164195649677222 ]
    mass: 118.710000
    reduced_to: 25
  - symbol: Sn # 29
    coordinates: [  0.164195631953122,  0.164195644881841,  0.664195649677222 ]
    mass: 118.710000
    reduced_to: 25
  - symbol: Sn # 30
    coordinates: [  0.664195631953122,  0.164195644881841,  0.664195649677222 ]
    mass: 118.710000
    reduced_to: 25
  - symbol: Sn # 31
    coordinates: [  0.164195631953122,  0.664195644881841,  0.664195649677222 ]
    mass: 118.710000
    reduced_to: 25
  - symbol: Sn # 32
    coordinates: [  0.664195631953122,  0.664195644881841,  0.664195649677222 ]
    mass: 118.710000
    reduced_to: 25

displacements:
- atom:    1
  displacement:
    [   0.0100000000000000,  0.0000000000000000,  0.0000000000000000 ]
  forces:
  - [  -0.0290831401944160, -0.0138489231467247, -0.0096722543239594 ]
  - [  -0.0087900757789612, -0.0049528852105141, -0.0034599304199219 ]
  - [  -0.0088464319705963, -0.0049191638827324, -0.0034681297838688 ]
  - [  -0.0089599937200546, -0.0052819177508354, -0.0034772455692291 ]
  - [  -0.0088467895984650, -0.0049504786729813, -0.0034241937100887 ]
  - [  -0.0089611262083054, -0.0050838738679886, -0.0037613771855831 ]
  - [  -0.0091342031955719, -0.0049754381179810, -0.0034753680229187 ]
  - [  -0.0089516639709473, -0.0049936696887016, -0.0034888908267021 ]
  - [   0.0089432150125504,  0.0049511790275574,  0.0034572631120682 ]
  - [   0.0086566805839539,  0.0050185173749924,  0.0035044066607952 ]
  - [   0.0088706165552139,  0.0048822388052940,  0.0036674253642559 ]
  - [   0.0084503591060638,  0.0047233551740646,  0.0041947141289711 ]
  - [   0.0088697224855423,  0.0051231905817986,  0.0033206567168236 ]
  - [   0.0084503442049026,  0.0055636838078499,  0.0029903091490269 ]
  - [   0.0111433118581772,  0.0038910657167435,  0.0027167089283466 ]
  - [   0.0135964453220367,  0.0071217566728592,  0.0049741901457310 ]
  - [  -0.0199657641351223, -0.0111659318208694, -0.0078002009540796 ]
  - [  -0.0298565626144409, -0.0165714304894209, -0.0115715833380818 ]
  - [  -0.0303201619535685, -0.0171998124569654, -0.0116372602060437 ]
  - [  -0.0306148994714022, -0.0171623304486275, -0.0121041173115373 ]
  - [  -0.0303195863962173, -0.0168487522751093, -0.0121429646387696 ]
  - [  -0.0306155029684305, -0.0172761958092451, -0.0119449421763420 ]
  - [  -0.0308441706001759, -0.0170327629894018, -0.0118975453078747 ]
  - [  -0.0311264265328646, -0.0170083492994308, -0.0118820127099752 ]
  - [   0.0305225066840649,  0.0170482285320759,  0.0119082042947412 ]
  - [   0.0307507589459419,  0.0176090653985739,  0.0122975576668978 ]
  - [   0.0303986668586731,  0.0171418301761150,  0.0117460582405329 ]
  - [   0.0321757346391678,  0.0179898813366890,  0.0116333998739719 ]
  - [   0.0303969830274582,  0.0169260837137699,  0.0120510356500745 ]
  - [   0.0321751870214939,  0.0171154215931892,  0.0128854420036077 ]
  - [   0.0311635266989470,  0.0169870965182781,  0.0118631683290005 ]
  - [   0.0306723415851593,  0.0171794425696135,  0.0119973868131638 ]
- atom:    1
  displacement:
    [  -0.0100000000000000,  0.0000000000000000,  0.0000000000000000 ]
  forces:
  - [   0.0114265978336334,  0.0040456354618073,  0.0028258599340916 ]
  - [  -0.0091067850589752, -0.0050387233495712, -0.0035197585821152 ]
  - [  -0.0090633779764175, -0.0050660669803619, -0.0035124495625496 ]
  - [  -0.0089496076107025, -0.0047185271978378, -0.0034999959170818 ]
  - [  -0.0090636909008026, -0.0050430819392204, -0.0035471543669701 ]
  - [  -0.0089508742094040, -0.0049108415842056, -0.0032246299088001 ]
  - [  -0.0087784528732300, -0.0050160065293312, -0.0035036131739616 ]
  - [  -0.0089561492204666, -0.0049958303570747, -0.0034905895590782 ]
  - [   0.0089670121669769,  0.0050451830029488,  0.0035227760672569 ]
  - [   0.0092523247003555,  0.0049788132309914,  0.0034764334559441 ]
  - [   0.0090357810258865,  0.0051084905862808,  0.0033117048442364 ]
  - [   0.0094590187072754,  0.0052675828337669,  0.0028001703321934 ]
  - [   0.0090350508689880,  0.0048668459057808,  0.0036555826663971 ]
  - [   0.0094583183526993,  0.0044417977333069,  0.0039813183248043 ]
  - [   0.0066932290792465,  0.0061375722289085,  0.0042856484651566 ]
  - [   0.0043401867151260,  0.0028922557830811,  0.0020206160843372 ]
  - [  -0.0418601706624031, -0.0233775302767754, -0.0163285806775093 ]
  - [  -0.0315733067691326, -0.0177536606788635, -0.0123974159359932 ]
  - [  -0.0311635825783014, -0.0171143803745508, -0.0123183950781822 ]
  - [  -0.0308595336973667, -0.0171442925930023, -0.0118551729246974 ]
  - [  -0.0311631932854652, -0.0174589399248362, -0.0118274074047804 ]
  - [  -0.0308600217103958, -0.0170360729098320, -0.0120131960138679 ]
  - [  -0.0306371748447418, -0.0172687247395515, -0.0120625849813223 ]
  - [  -0.0303669832646847, -0.0172793604433537, -0.0120717715471983 ]
  - [   0.0309494677931070,  0.0172662287950516,  0.0120601225644350 ]
  - [   0.0307214837521315,  0.0167077295482159,  0.0116676827892661 ]
  - [   0.0311084091663361,  0.0171449147164822,  0.0122455963864923 ]
  - [   0.0293336696922779,  0.0163329914212227,  0.0122954305261374 ]
  - [   0.0311068035662174,  0.0173962153494358,  0.0118823517113924 ]
  - [   0.0293334946036339,  0.0171674024313688,  0.0111021269112825 ]
  - [   0.0303205717355013,  0.0172965433448553,  0.0120795089751482 ]
  - [   0.0308114644140005,  0.0171257834881544,  0.0119598200544715 ]
- atom:   17
  displacement:
    [   0.0100000000000000,  0.0000000000000000,  0.0000000000000000 ]
  forces:
  - [   0.0021979808807373,  0.0012410357594490,  0.0008676759898663 ]
  - [  -0.0081230998039246, -0.0052942559123039, -0.0036978535354137 ]
  - [  -0.0085308402776718, -0.0041330829262733, -0.0034775175154209 ]
  - [  -0.0088325589895248, -0.0050062537193298, -0.0035062134265900 ]
  - [  -0.0085308849811554, -0.0046891421079636, -0.0026836246252060 ]
  - [  -0.0088333785533905, -0.0050155743956566, -0.0034926980733871 ]
  - [  -0.0090586990118027, -0.0049789249897003, -0.0034778304398060 ]
  - [  -0.0093307942152023, -0.0048530697822571, -0.0033907517790794 ]
  - [   0.0087326467037201,  0.0048856139183044,  0.0034113563597202 ]
  - [   0.0089690536260605,  0.0047664716839790,  0.0033282414078712 ]
  - [   0.0086040049791336,  0.0056674331426620,  0.0029993169009686 ]
  - [   0.0103894323110580,  0.0058350563049316,  0.0023496784269810 ]
  - [   0.0086025893688202,  0.0047657713294029,  0.0042877383530140 ]
  - [   0.0103880763053894,  0.0042146816849709,  0.0046689808368683 ]
  - [   0.0093719363212585,  0.0055786222219467,  0.0038954652845860 ]
  - [   0.0088861286640167,  0.0050217062234879,  0.0035075657069683 ]
  - [  -0.0501651093363762, -0.0098405778408051, -0.0068708304315805 ]
  - [  -0.0307636354118586, -0.0171637386083603, -0.0119855850934982 ]
  - [  -0.0307692177593708, -0.0171621292829514, -0.0119834970682859 ]
  - [  -0.0308148544281721, -0.0170294344425201, -0.0116770137101412 ]
  - [  -0.0307690035551786, -0.0171607416123152, -0.0119874887168407 ]
  - [  -0.0308156013488770, -0.0168293900787830, -0.0119666690006852 ]
  - [  -0.0307537391781807, -0.0168581604957581, -0.0117750409990549 ]
  - [  -0.0305449925363064, -0.0170492865145206, -0.0119114192202687 ]
  - [   0.0313579253852367,  0.0174822919070721,  0.0122109558433294 ]
  - [   0.0342564433813095,  0.0075605111196637,  0.0052791624329984 ]
  - [   0.0309370961040258,  0.0096814660355449,  0.0149281444028020 ]
  - [   0.0308448877185583,  0.0171972904354334,  0.0120843900367618 ]
  - [   0.0309377908706665,  0.0173466503620148,  0.0039487448520958 ]
  - [   0.0308442562818527,  0.0172669924795628,  0.0119865965098143 ]
  - [   0.0309450477361679,  0.0172053799033165,  0.0120159881189466 ]
  - [   0.0303713064640760,  0.0173467844724655,  0.0121140312403440 ]
- atom:   17
  displacement:
    [  -0.0100000000000000,  0.0000000000000000,  0.0000000000000000 ]
  forces:
  - [  -0.0196972116827965, -0.0109705552458763, -0.0076608359813690 ]
  - [  -0.0098408460617065, -0.0046689659357071, -0.0032610446214676 ]
  - [  -0.0093747228384018, -0.0058534890413284, -0.0034961812198162 ]
  - [  -0.0090769827365875, -0.0049878284335136, -0.0034676529467106 ]
  - [  -0.0093746185302734, -0.0052994936704636, -0.0042928457260132 ]
  - [  -0.0090781152248383, -0.0049733519554138, -0.0034886114299297 ]
  - [  -0.0088518708944321, -0.0050168931484222, -0.0035045109689236 ]
  - [  -0.0085717141628265, -0.0051243305206299, -0.0035800561308861 ]
  - [   0.0091596543788910,  0.0051037892699242,  0.0035636797547340 ]
  - [   0.0089394748210907,  0.0052255168557167,  0.0036488994956017 ]
  - [   0.0093138962984085,  0.0043099820613861,  0.0039979368448257 ]
  - [   0.0075477063655853,  0.0041784495115280,  0.0046012252569199 ]
  - [   0.0093119740486145,  0.0052356496453285,  0.0026692897081375 ]
  - [   0.0075458884239197,  0.0057582557201385,  0.0023386254906654 ]
  - [   0.0085291564464569,  0.0043967813253403,  0.0030704326927662 ]
  - [   0.0090247839689255,  0.0049676746129990,  0.0034699514508247 ]
  - [  -0.0118684694170952, -0.0245949886739254, -0.0171728283166885 ]
  - [  -0.0307209007441998, -0.0171357635408640, -0.0119664659723639 ]
  - [  -0.0307098962366581, -0.0171448923647404, -0.0119724543765187 ]
  - [  -0.0306565333157778, -0.0172823518514633, -0.0122873410582542 ]
  - [  -0.0307093206793070, -0.0171447731554508, -0.0119753796607256 ]
  - [  -0.0306578837335110, -0.0174888540059328, -0.0119934491813183 ]
  - [  -0.0307306796312332, -0.0174355022609234, -0.0121777020394802 ]
  - [  -0.0309462677687407, -0.0172550305724144, -0.0120553467422724 ]
  - [   0.0300729908049107,  0.0167908277362585,  0.0117282774299383 ]
  - [   0.0272528529167175,  0.0266174729913473,  0.0185879021883011 ]
  - [   0.0306184515357018,  0.0246135927736759,  0.0090690720826387 ]
  - [   0.0306411273777485,  0.0171033013612032,  0.0118733085691929 ]
  - [   0.0306211952120066,  0.0169879999011755,  0.0199824050068855 ]
  - [   0.0306406710296869,  0.0170362852513790,  0.0119715817272663 ]
  - [   0.0305417347699404,  0.0170981530100107,  0.0119408722966909 ]
  - [   0.0311044082045555,  0.0169533416628838,  0.0118393003940582 ]

force_constants:
  format: "full"
  shape: [ 32, 32 ]
  elements:
  - # (1, 1)
    - [     2.025492619788323,     0.894742156541636,     0.624878224574623 ]
    - [     0.894742156541636,     0.921303886807729,     0.348686311920803 ]
    - [     0.624878224574623,     0.348686311920803,     0.665550401386039 ]
  - # (1, 2)
    - [    -0.015829744717772,    -0.004286449460888,    -0.002993610725601 ]
    - [    -0.004286450192639,    -0.003650987271375,    -0.000765221168503 ]
    - [    -0.002993610804881,    -0.000765221993737,    -0.003089714813144 ]
  - # (1, 3)
    - [    -0.010840464670846,    -0.007365050854150,    -0.002223230918134 ]
    - [    -0.007365050450729,    -0.008640267721845,    -0.002145810900919 ]
    - [    -0.002223230624284,    -0.002145812350884,    -0.003089714467422 ]
  - # (1, 4)
    - [     0.000521672193114,     0.028169055316362,    -0.001135610489327 ]
    - [     0.028169055323635,    -0.034241366356471,    -0.000633676592264 ]
    - [    -0.001135611835114,    -0.000633674200404,     0.020630452263778 ]
  - # (1, 5)
    - [    -0.010840463948488,    -0.004623182218498,    -0.006149221057865 ]
    - [    -0.004623182572844,    -0.005135060396362,    -0.003431307392959 ]
    - [    -0.006149220168422,    -0.003431307725746,    -0.006594923069873 ]
  - # (1, 6)
    - [     0.000521670829647,     0.008632834846821,     0.026837651073038 ]
    - [     0.008632834096839,     0.013715585129908,    -0.018221345052323 ]
    - [     0.026837652174112,    -0.018221346925905,    -0.027326498263189 ]
  - # (1, 7)
    - [     0.017793234770646,    -0.002024463734426,    -0.001413862992017 ]
    - [    -0.002024464138928,    -0.003555975334460,     0.032407989992469 ]
    - [    -0.001413861865727,     0.032407991681254,    -0.027326505029716 ]
  - # (1, 8)
    - [    -0.000218543834948,    -0.000115821138282,    -0.000080888742715 ]
    - [    -0.000115822146107,    -0.000075610374991,    -0.000045135718562 ]
    - [    -0.000080887299645,    -0.000045138304679,    -0.000042502376138 ]
  - # (1, 9)
    - [     0.001195576362408,     0.004693616093504,     0.003277970090463 ]
    - [     0.004693615085679,    -0.004596749137498,     0.001829130427888 ]
    - [     0.003277971533533,     0.001829127841771,    -0.005938372767328 ]
  - # (1, 10)
    - [     0.029787924550286,    -0.001982708856245,    -0.001384702951728 ]
    - [    -0.001982708736252,     0.002521348158511,    -0.020050716636823 ]
    - [    -0.001384701517981,    -0.020050720358502,     0.017228097241777 ]
  - # (1, 11)
    - [     0.008268040546933,     0.011295984658222,    -0.017790854233743 ]
    - [     0.011295983908240,     0.024041233054857,     0.009350628068549 ]
    - [    -0.017790853132669,     0.009350626194968,     0.017228093842958 ]
  - # (1, 12)
    - [     0.050421564456159,     0.027205660626086,    -0.069719841075796 ]
    - [     0.027205660271740,     0.016847432697785,    -0.038904155681485 ]
    - [    -0.069719840186353,    -0.038904156014272,    -0.265513413914679 ]
  - # (1, 13)
    - [     0.008268040367556,    -0.012813653021144,     0.016730929654685 ]
    - [    -0.012813655613588,     0.024081191892596,     0.009335971985066 ]
    - [     0.016730931638379,     0.009335969958318,     0.017188136066802 ]
  - # (1, 14)
    - [     0.050421560076674,    -0.056089495838642,     0.049547693829041 ]
    - [    -0.056089490620809,    -0.257191259172610,     0.061596434894986 ]
    - [     0.049547698229681,     0.061596449048628,     0.008525296209430 ]
  - # (1, 15)
    - [    -0.222498408895826,     0.112313871282247,     0.078438782473301 ]
    - [     0.112313869541905,     0.015728702744951,     0.009820897916254 ]
    - [     0.078438771104345,     0.009820902985085,     0.008525304790024 ]
  - # (1, 16)
    - [    -0.462807211960244,    -0.211472192218050,    -0.147689886339147 ]
    - [    -0.211472192218050,    -0.201832349164891,    -0.082411965211116 ]
    - [    -0.147689886339147,    -0.082411965211116,    -0.141385044337788 ]
  - # (1, 17)
    - [    -1.094739836582145,    -0.610579718672086,    -0.426422260610753 ]
    - [    -0.610579722842470,    -0.341231975528786,    -0.237946530832892 ]
    - [    -0.426422255448939,    -0.237946536054885,    -0.166703597481080 ]
  - # (1, 18)
    - [    -0.085862111836336,    -0.059093653767937,    -0.041270369550516 ]
    - [     0.031249090888182,    -0.008371097708135,    -0.014567017601815 ]
    - [     0.021824015392448,    -0.014567026010287,     0.002313484614824 ]
  - # (1, 19)
    - [    -0.042182905137835,     0.004297133627412,    -0.034068868596016 ]
    - [    -0.086045602872334,    -0.052050303683083,    -0.027472776756927 ]
    - [    -0.000936684381580,     0.026222302635525,     0.002313479390389 ]
  - # (1, 20)
    - [    -0.012228772286067,     0.000917957159720,     0.012458784449370 ]
    - [     0.000917955919967,    -0.013361615697664,     0.006952090342648 ]
    - [     0.001925339525114,     0.001074361338924,     0.010445596096971 ]
  - # (1, 21)
    - [    -0.042182902588095,    -0.030506138618722,     0.015764784170380 ]
    - [    -0.030506145115084,    -0.004535703618517,     0.008796850880145 ]
    - [    -0.080461785227176,    -0.044898230305450,    -0.045201125684677 ]
  - # (1, 22)
    - [    -0.012228776623421,     0.012013053731569,    -0.003427909429433 ]
    - [     0.002123686646575,     0.010217830739974,    -0.007573139985211 ]
    - [     0.000198906598450,    -0.001695409334438,    -0.013133846815396 ]
  - # (1, 23)
    - [     0.010345740284077,    -0.011805765833353,    -0.008245013980620 ]
    - [    -0.001916395250338,    -0.012356675532185,     0.001059566652284 ]
    - [    -0.001338387683965,     0.001059566510419,    -0.013133853781504 ]
  - # (1, 24)
    - [     0.037963223623164,    -0.013560840004198,    -0.009470742879476 ]
    - [    -0.013560840457906,     0.054698466784572,    -0.005284745326369 ]
    - [    -0.009470743039355,    -0.005284741011839,     0.058574708537441 ]
  - # (1, 25)
    - [     0.021349360214580,     0.010899968476153,     0.007612420632798 ]
    - [     0.010899968022890,     0.007897863077087,     0.004247776472209 ]
    - [     0.007612420472511,     0.004247780786337,     0.004782216702349 ]
  - # (1, 26)
    - [    -0.001471206147036,    -0.045074178654653,    -0.031479312197580 ]
    - [     0.022960009679934,     0.063202040155960,     0.048772623721962 ]
    - [     0.016035024574673,     0.048772627476290,     0.027428418658592 ]
  - # (1, 27)
    - [     0.035485624718558,     0.000156059229351,     0.024976419138154 ]
    - [    -0.067878126803305,     0.026245199862892,    -0.052401291392337 ]
    - [     0.049927188085941,    -0.011965269533567,     0.027428430356360 ]
  - # (1, 28)
    - [    -0.142095750449614,    -0.082828261269847,     0.033130315433040 ]
    - [    -0.082828261446490,    -0.039878546471815,     0.018486934360300 ]
    - [     0.112564347180449,     0.062811664682497,    -0.084914996226693 ]
  - # (1, 29)
    - [     0.035485626463198,     0.023502953119764,    -0.008453220229277 ]
    - [     0.023502956215103,     0.006480956203139,    -0.004716952562953 ]
    - [    -0.080918332652133,    -0.045152971265898,     0.047192669836639 ]
  - # (1, 30)
    - [    -0.142095746279345,     0.002585589278852,    -0.089170925674103 ]
    - [     0.077162583340949,    -0.053295150419214,     0.067732063154817 ]
    - [    -0.116521198544795,     0.023407332632612,    -0.071498401696661 ]
  - # (1, 31)
    - [    -0.042143227319287,     0.015487583734989,     0.010816356590311 ]
    - [    -0.059089406273084,    -0.153247681350699,    -0.111454429537071 ]
    - [    -0.041267406058890,    -0.111454431430310,    -0.071498373667053 ]
  - # (1, 32)
    - [     0.006944594031985,    -0.002691903561567,    -0.001879999435356 ]
    - [    -0.002691907732315,     0.010266637630637,    -0.001049052439850 ]
    - [    -0.001879994273205,    -0.001049057661513,     0.011036098397966 ]
  - # (2, 1)
    - [    -0.015829744717772,    -0.004286450192639,    -0.002993610804881 ]
    - [    -0.004286449460888,    -0.003650987271375,    -0.000765221993737 ]
    - [    -0.002993610725601,    -0.000765221168503,    -0.003089714813144 ]
  - # (2, 2)
    - [     2.025492568751121,     0.894742128480876,     0.624878327689595 ]
    - [     0.894742128480876,     0.921303863549451,     0.348686306450644 ]
    - [     0.624878327689595,     0.348686306450644,     0.665550477789853 ]
  - # (2, 3)
    - [     0.000521672353454,     0.028169055040017,    -0.001135611984819 ]
    - [     0.028169052949204,    -0.034241362155281,    -0.000633673213324 ]
    - [    -0.001135611232123,    -0.000633675661443,     0.020630453095601 ]
  - # (2, 4)
    - [    -0.010840462786706,    -0.007365050818184,    -0.002223233065191 ]
    - [    -0.007365051076026,    -0.008640267974889,    -0.002145810970953 ]
    - [    -0.002223232723195,    -0.002145811683489,    -0.003089714959207 ]
  - # (2, 5)
    - [     0.000521672911774,     0.008632833036142,     0.026837650579309 ]
    - [     0.008632833348723,     0.013715586186956,    -0.018221346319565 ]
    - [     0.026837648107702,    -0.018221344174283,    -0.027326497509330 ]
  - # (2, 6)
    - [    -0.010840463452019,    -0.004623182635728,    -0.006149221803517 ]
    - [    -0.004623182928475,    -0.005135058816421,    -0.003431306497708 ]
    - [    -0.006149220895806,    -0.003431307370495,    -0.006594923695913 ]
  - # (2, 7)
    - [    -0.000218543313504,    -0.000115822169373,    -0.000080889712461 ]
    - [    -0.000115821979764,    -0.000075608500906,    -0.000045135396450 ]
    - [    -0.000080889187375,    -0.000045136438711,    -0.000042503369973 ]
  - # (2, 8)
    - [     0.017793234732118,    -0.002024464179348,    -0.001413862347497 ]
    - [    -0.002024462808625,    -0.003555975953647,     0.032407992417840 ]
    - [    -0.001413863767041,     0.032407990517608,    -0.027326504368187 ]
  - # (2, 9)
    - [     0.029787924074969,    -0.001982708880239,    -0.001384701479687 ]
    - [    -0.001982710264790,     0.002521348384423,    -0.020050718104788 ]
    - [    -0.001384701330013,    -0.020050719967618,     0.017228097016849 ]
  - # (2, 10)
    - [     0.001195577121682,     0.004693614921664,     0.003277969089970 ]
    - [     0.004693614778848,    -0.004596747031740,     0.001829131350303 ]
    - [     0.003277969299277,     0.001829130261383,    -0.005938374230668 ]
  - # (2, 11)
    - [     0.050421559866482,     0.027205662965582,    -0.069719841872551 ]
    - [     0.027205657159488,     0.016847435808340,    -0.038904155111546 ]
    - [    -0.069719852612913,    -0.038904145147258,    -0.265513424304806 ]
  - # (2, 12)
    - [     0.008268040071318,     0.011295984702581,    -0.017790855795156 ]
    - [     0.011295984545914,     0.024041232979651,     0.009350627356697 ]
    - [    -0.017790853459315,     0.009350626989807,     0.017228092491094 ]
  - # (2, 13)
    - [     0.050421563143030,    -0.056089491022961,     0.049547696522841 ]
    - [    -0.056089491280803,    -0.257191278663292,     0.061596448129642 ]
    - [     0.049547696864837,     0.061596447417107,     0.008525297517782 ]
  - # (2, 14)
    - [     0.008268040270671,    -0.012813655410824,     0.016730931684951 ]
    - [    -0.012813653149712,     0.024081191410448,     0.009335970594820 ]
    - [     0.016730931400282,     0.009335971249502,     0.017188136521616 ]
  - # (2, 15)
    - [    -0.462807199400880,    -0.211472186262006,    -0.147689911218502 ]
    - [    -0.211472186262006,    -0.201832341530540,    -0.082411963940777 ]
    - [    -0.147689911218502,    -0.082411963940777,    -0.141385062423188 ]
  - # (2, 16)
    - [    -0.222498408895826,     0.112313869541905,     0.078438771104345 ]
    - [     0.112313871282247,     0.015728702744951,     0.009820902985085 ]
    - [     0.078438782473301,     0.009820897916254,     0.008525304790024 ]
  - # (2, 17)
    - [    -0.085862118755339,    -0.059093649673223,    -0.041270371928244 ]
    - [     0.031249091017719,    -0.008371099533814,    -0.014567021366063 ]
    - [     0.021824028138298,    -0.014567029092047,     0.002313486825583 ]
  - # (2, 18)
    - [    -1.094739813690309,    -0.610579703432800,    -0.426422305569344 ]
    - [    -0.610579703271040,    -0.341231954920905,    -0.237946544133244 ]
    - [    -0.426422307537553,    -0.237946547392739,    -0.166703632344211 ]
  - # (2, 19)
    - [    -0.012228774258335,     0.000917952807226,     0.012458783623290 ]
    - [     0.000917955647866,    -0.013361605532981,     0.006952091865280 ]
    - [     0.001925348463123,     0.001074356268629,     0.010445591077202 ]
  - # (2, 20)
    - [    -0.042182899732332,     0.004297138694133,    -0.034068871004390 ]
    - [    -0.086045606627114,    -0.052050314259333,    -0.027472782036016 ]
    - [    -0.000936695440285,     0.026222308541921,     0.002313481433308 ]
  - # (2, 21)
    - [    -0.012228773916870,     0.012013053730253,    -0.003427909715666 ]
    - [     0.002123684081352,     0.010217830092917,    -0.007573141167442 ]
    - [     0.000198903449174,    -0.001695408456051,    -0.013133847431786 ]
  - # (2, 22)
    - [    -0.042182901882374,    -0.030506140601776,     0.015764781586805 ]
    - [    -0.030506141491049,    -0.004535701355453,     0.008796850814472 ]